 Entering Link 1 = C:|G09W|l1.exe PID=      1804.
  
 Copyright (c) 1988,1990,1992,1993,1995,1998,2003,2009,2013,
            Gaussian, Inc.  All Rights Reserved.
  
 This is part of the Gaussian(R) 09 program.  It is based on
 the Gaussian(R) 03 system (copyright 2003, Gaussian, Inc.),
 the Gaussian(R) 98 system (copyright 1998, Gaussian, Inc.),
 the Gaussian(R) 94 system (copyright 1995, Gaussian, Inc.),
 the Gaussian 92(TM) system (copyright 1992, Gaussian, Inc.),
 the Gaussian 90(TM) system (copyright 1990, Gaussian, Inc.),
 the Gaussian 88(TM) system (copyright 1988, Gaussian, Inc.),
 the Gaussian 86(TM) system (copyright 1986, Carnegie Mellon
 University), and the Gaussian 82(TM) system (copyright 1983,
 Carnegie Mellon University). Gaussian is a federally registered
 trademark of Gaussian, Inc.
  
 This software contains proprietary and confidential information,
 including trade secrets, belonging to Gaussian, Inc.
  
 This software is provided under written license and may be
 used, copied, transmitted, or stored only in accord with that
 written license.
  
 The following legend is applicable only to US Government
 contracts under FAR:
  
                    RESTRICTED RIGHTS LEGEND
  
 Use, reproduction and disclosure by the US Government is
 subject to restrictions as set forth in subparagraphs (a)
 and (c) of the Commercial Computer Software - Restricted
 Rights clause in FAR 52.227-19.
  
 Gaussian, Inc.
 340 Quinnipiac St., Bldg. 40, Wallingford CT 06492
  
  
 ---------------------------------------------------------------
 Warning -- This program may not be used in any manner that
 competes with the business of Gaussian, Inc. or will provide
 assistance to any competitor of Gaussian, Inc.  The licensee
 of this program is prohibited from giving any competitor of
 Gaussian, Inc. access to this program.  By using this program,
 the user acknowledges that Gaussian, Inc. is engaged in the
 business of creating and licensing software in the field of
 computational chemistry and represents and warrants to the
 licensee that it is not a competitor of Gaussian, Inc. and that
 it will not use this program in any manner prohibited above.
 ---------------------------------------------------------------
  

 Cite this work as:
 Gaussian 09, Revision D.01,
 M. J. Frisch, G. W. Trucks, H. B. Schlegel, G. E. Scuseria, 
 M. A. Robb, J. R. Cheeseman, G. Scalmani, V. Barone, B. Mennucci, 
 G. A. Petersson, H. Nakatsuji, M. Caricato, X. Li, H. P. Hratchian, 
 A. F. Izmaylov, J. Bloino, G. Zheng, J. L. Sonnenberg, M. Hada, 
 M. Ehara, K. Toyota, R. Fukuda, J. Hasegawa, M. Ishida, T. Nakajima, 
 Y. Honda, O. Kitao, H. Nakai, T. Vreven, J. A. Montgomery, Jr., 
 J. E. Peralta, F. Ogliaro, M. Bearpark, J. J. Heyd, E. Brothers, 
 K. N. Kudin, V. N. Staroverov, T. Keith, R. Kobayashi, J. Normand, 
 K. Raghavachari, A. Rendell, J. C. Burant, S. S. Iyengar, J. Tomasi, 
 M. Cossi, N. Rega, J. M. Millam, M. Klene, J. E. Knox, J. B. Cross, 
 V. Bakken, C. Adamo, J. Jaramillo, R. Gomperts, R. E. Stratmann, 
 O. Yazyev, A. J. Austin, R. Cammi, C. Pomelli, J. W. Ochterski, 
 R. L. Martin, K. Morokuma, V. G. Zakrzewski, G. A. Voth, 
 P. Salvador, J. J. Dannenberg, S. Dapprich, A. D. Daniels, 
 O. Farkas, J. B. Foresman, J. V. Ortiz, J. Cioslowski, 
 and D. J. Fox, Gaussian, Inc., Wallingford CT, 2013.
 
 ******************************************
 Gaussian 09:  IA32W-G09RevD.01 24-Apr-2013
                31-Aug-2024 
 ******************************************
 %nprocshared=4
 Will use up to    4 processors via shared memory.
 %mem=150MW
 %chk=C:|G09W|Scratch|nbo -1.chk
 ------------------------
 # b3lyp/6-31g(d) pop=nbo
 ------------------------
 1/38=1/1;
 2/12=2,17=6,18=5,40=1/2;
 3/5=1,6=6,7=1,11=2,16=1,25=1,30=1,74=-5/1,2,3;
 4//1;
 5/5=2,38=5/2;
 6/7=2,8=2,9=2,10=2,28=1,40=1/1,7;
 99/5=1,9=1/99;
 -------------------
 Title Card Required
 -------------------
 Symbolic Z-matrix:
 Charge = -1 Multiplicity = 2
 C                     0.49669  -1.12583   0. 
 N                    -0.52017  -1.99928   0.01379 
 C                    -1.74359  -1.47368   0.02209 
 C                    -1.94891  -0.09249   0.01639 
 C                    -0.82344   0.7225    0.00266 
 N                     0.41075   0.20653  -0.00574 
 Br                   -3.70253   0.64346   0.02662 
 O                     1.70624  -1.70335  -0.0101 
 C                     2.86172  -0.84632  -0.04048 
 C                     4.05808  -1.78412  -0.0582 
 O                     5.21073  -0.92044  -0.08623 
 N                     8.88976  -2.63118  -0.16705 
 C                     7.75466  -3.32017  -0.13545 
 N                     6.52028  -2.81862  -0.1149 
 C                     6.42629  -1.48563  -0.11639 
 C                     7.54038  -0.62178  -0.12759 
 C                     8.77715  -1.28917  -0.15946 
 C                     6.73603   1.5313   -1.14422 
 C                     7.40615   0.86031  -0.10849 
 C                     7.94623   1.61699   0.94433 
 C                     7.82478   3.00711   0.96606 
 C                     7.15269   3.6418   -0.07515 
 C                     6.60434   2.91862  -1.13313 
 N                     9.96652  -0.58098  -0.24028 
 Br                    6.97652   5.55106  -0.05315 
 S                     11.49535  -1.18912   0.15145 
 O                     12.40873  -0.07282  -0.08254 
 O                     11.46271  -1.81762   1.47358 
 N                     11.70078  -2.30547  -1.08412 
 H                    -2.58048  -2.16835   0.03308 
 H                    -0.90513   1.80665  -0.00183 
 H                     2.84018  -0.21707  -0.93517 
 H                     2.87835  -0.20181   0.84328 
 H                     4.08199  -2.41402   0.83557 
 H                     4.04555  -2.42571  -0.94365 
 H                     7.84296  -4.40359  -0.13343 
 H                     6.3142    0.96741  -1.97032 
 H                     8.45846   1.12029   1.76345 
 H                     8.24386   3.57796   1.78769 
 H                     6.08475   3.42384  -1.9402 
 H                     9.9483    0.43097  -0.32769 
 H                     10.97232  -3.02106  -0.97879 
 H                     12.62368  -2.73778  -0.98501 
 
                          Input orientation:                          
 ---------------------------------------------------------------------
 Center     Atomic      Atomic             Coordinates (Angstroms)
 Number     Number       Type             X           Y           Z
 ---------------------------------------------------------------------
      1          6           0        0.496689   -1.125828    0.000000
      2          7           0       -0.520173   -1.999283    0.013791
      3          6           0       -1.743592   -1.473676    0.022093
      4          6           0       -1.948912   -0.092494    0.016391
      5          6           0       -0.823436    0.722504    0.002664
      6          7           0        0.410750    0.206529   -0.005744
      7         35           0       -3.702526    0.643459    0.026617
      8          8           0        1.706242   -1.703353   -0.010104
      9          6           0        2.861722   -0.846316   -0.040483
     10          6           0        4.058080   -1.784118   -0.058198
     11          8           0        5.210734   -0.920442   -0.086232
     12          7           0        8.889756   -2.631182   -0.167054
     13          6           0        7.754658   -3.320170   -0.135448
     14          7           0        6.520280   -2.818616   -0.114899
     15          6           0        6.426292   -1.485628   -0.116388
     16          6           0        7.540381   -0.621779   -0.127592
     17          6           0        8.777148   -1.289173   -0.159462
     18          6           0        6.736032    1.531298   -1.144218
     19          6           0        7.406146    0.860313   -0.108487
     20          6           0        7.946229    1.616986    0.944327
     21          6           0        7.824782    3.007111    0.966056
     22          6           0        7.152689    3.641803   -0.075148
     23          6           0        6.604340    2.918620   -1.133125
     24          7           0        9.966518   -0.580982   -0.240278
     25         35           0        6.976519    5.551059   -0.053146
     26         16           0       11.495355   -1.189120    0.151447
     27          8           0       12.408734   -0.072820   -0.082543
     28          8           0       11.462712   -1.817616    1.473577
     29          7           0       11.700783   -2.305473   -1.084121
     30          1           0       -2.580484   -2.168352    0.033075
     31          1           0       -0.905128    1.806651   -0.001826
     32          1           0        2.840175   -0.217068   -0.935172
     33          1           0        2.878346   -0.201815    0.843281
     34          1           0        4.081995   -2.414024    0.835567
     35          1           0        4.045555   -2.425713   -0.943654
     36          1           0        7.842961   -4.403589   -0.133425
     37          1           0        6.314196    0.967413   -1.970318
     38          1           0        8.458458    1.120289    1.763447
     39          1           0        8.243864    3.577963    1.787689
     40          1           0        6.084746    3.423842   -1.940198
     41          1           0        9.948295    0.430974   -0.327691
     42          1           0       10.972317   -3.021056   -0.978794
     43          1           0       12.623685   -2.737777   -0.985012
 ---------------------------------------------------------------------
                    Distance matrix (angstroms):
                    1          2          3          4          5
     1  C    0.000000
     2  N    1.340568   0.000000
     3  C    2.267233   1.331573   0.000000
     4  C    2.654997   2.382676   1.396371   0.000000
     5  C    2.271358   2.738652   2.381233   1.389643   0.000000
     6  N    1.335138   2.394286   2.732225   2.378636   1.337728
     7  Br   4.556806   4.136619   2.884389   1.901813   2.880274
     8  O    1.340394   2.246123   3.457621   3.994461   3.504884
     9  C    2.381837   3.573442   4.648269   4.869669   4.005427
    10  C    3.622187   4.583872   5.810527   6.241082   5.487810
    11  O    4.719305   5.832426   6.977137   7.208090   6.254469
    12  N    8.528633   9.432856  10.697836  11.133522  10.277262
    13  C    7.583640   8.380921   9.677350  10.227425   9.483986
    14  N    6.257986   7.089136   8.373722   8.898101   8.153743
    15  C    5.941649   6.966646   8.171066   8.491319   7.579484
    16  C    7.062857   8.178633   9.324177   9.505133   8.472160
    17  C    8.283605   9.326009  10.523924  10.794041   9.810420
    18  C    6.877424   8.152208   9.071613   8.911339   7.688631
    19  C    7.190071   8.427263   9.443636   9.404283   8.231486
    20  C    7.994400   9.253284  10.212509  10.084503   8.865318
    21  C    8.468495   9.777989  10.607653  10.297306   8.996623
    22  C    8.187692   9.523790  10.262621   9.838318   8.493935
    23  C    7.412485   8.732689   9.503407   9.140367   7.828461
    24  N    9.488533  10.585217  11.747017  11.928200  10.871118
    25  Br   9.304399  10.640138  11.197897  10.560201   9.173732
    26  S   10.999891  12.043597  13.242636  13.489594  12.467119
    27  O   11.958781  13.071999  14.221873  14.358000  13.256324
    28  O   11.086192  12.072841  13.290280  13.600407  12.631913
    29  N   11.318066  12.273994  13.515429  13.871646  12.930808
    30  H    3.249145   2.067326   1.087696   2.169873   3.383074
    31  H    3.250312   3.825385   3.385873   2.167157   1.087230
    32  H    2.681850   3.920301   4.848334   4.884296   3.896714
    33  H    2.690207   3.933049   4.863568   4.898788   3.906942
    34  H    3.900262   4.693322   5.956799   6.514015   5.881733
    35  H    3.895463   4.684487   5.945861   6.503786   5.874850
    36  H    8.045448   8.703124  10.025496  10.699942  10.069845
    37  H    6.489006   7.710160   8.651969   8.564425   7.409347
    38  H    8.458401   9.664825  10.669714  10.622448   9.455800
    39  H    9.237976  10.538535  11.330739  10.977360   9.672429
    40  H    7.462590   8.766602   9.440294   8.985128   7.667785
    41  H    9.584565  10.752283  11.851172  11.913688  10.780739
    42  H   10.690590  11.580439  12.848754  13.286272  12.414398
    43  H   12.273250  13.202423  14.457899  14.844558  13.920277
                    6          7          8          9         10
     6  N    0.000000
     7  Br   4.136543   0.000000
     8  O    2.307806   5.896069   0.000000
     9  C    2.667762   6.731514   1.438947   0.000000
    10  C    4.155532   8.131871   2.353716   1.520217   0.000000
    11  O    4.931165   9.050122   3.591686   2.350627   1.440601
    12  N    8.942716  13.012545   7.244887   6.288002   4.906573
    13  C    8.147847  12.124507   6.262040   5.483593   4.003762
    14  N    6.818342  10.794061   4.942647   4.156989   2.671298
    15  C    6.249991  10.351155   4.726264   3.622243   2.387658
    16  C    7.178620  11.314926   5.934710   4.684854   3.671821
    17  C    8.500434  12.629804   7.084601   5.933173   4.746033
    18  C    6.562037  10.541470   6.086704   4.677773   4.398051
    19  C    7.026632  11.111609   6.250677   4.854791   4.266742
    20  C    7.724990  11.725333   7.132534   5.734974   5.262154
    21  C    7.984706  11.804585   7.783180   6.363489   6.180050
    22  C    7.567012  11.262154   7.631429   6.209414   6.246400
    23  C    6.854705  10.618514   6.827531   5.419945   5.454783
    24  N    9.591031  13.726370   8.339356   7.112556   6.032439
    25  Br   8.466143  11.752996   8.966837   7.606453   7.894437
    26  S   11.173227  15.308478   9.803942   8.642567   7.463982
    27  O   12.001481  16.127543  10.826228   9.578387   8.524233
    28  O   11.332758  15.431623   9.869299   8.787083   7.561483
    29  N   11.616277  15.722336  10.070100   9.019275   7.728857
    30  H    3.819561   3.027425   4.312088   5.600963   6.650300
    31  H    2.071700   3.029729   4.374866   4.607482   6.126193
    32  H    2.635409   6.668769   2.085809   1.094023   2.169798
    33  H    2.641329   6.685006   2.087274   1.093937   2.169820
    34  H    4.588371   8.402462   2.620003   2.171230   1.093695
    35  H    4.584777   8.390113   2.620249   2.170639   1.093542
    36  H    8.746842  12.601450   6.705654   6.121729   4.603543
    37  H    6.268107  10.218973   5.675268   4.351259   4.039453
    38  H    8.290392  12.293635   7.530661   6.200416   5.578288
    39  H    8.714393  12.426943   8.594467   7.203049   7.048404
    40  H    6.803488  10.362895   7.013180   5.677240   5.896792
    41  H    9.545617  13.657071   8.519839   7.206489   6.298722
    42  H   11.086515  15.158843   9.409296   8.449359   7.084079
    43  H   12.600940  16.703332  11.009588   9.988277   8.668219
                   11         12         13         14         15
    11  O    0.000000
    12  N    4.058124   0.000000
    13  C    3.497523   1.328214   0.000000
    14  N    2.306252   2.377450   1.332541   0.000000
    15  C    1.340867   2.717263   2.265053   1.336298   0.000000
    16  C    2.349078   2.420758   2.706897   2.422160   1.409807
    17  C    3.586173   1.346747   2.273986   2.726653   2.359444
    18  C    3.075208   4.787444   5.058850   4.475243   3.202221
    19  C    2.826910   3.794083   4.195071   3.784087   2.542364
    20  C    3.870857   4.491363   5.057482   4.778060   3.614075
    21  C    4.833863   5.848800   6.422828   6.067066   4.828267
    22  C    4.958366   6.509699   6.988209   6.491420   5.178793
    23  C    4.216222   6.079205   6.421923   5.827498   4.523589
    24  N    4.770372   2.316916   3.522281   4.110873   3.656082
    25  Br   6.708161   8.403720   8.905671   8.382328   7.058450
    26  S    6.294850   2.995017   4.314684   5.241904   5.084786
    27  O    7.247736   4.351501   5.675253   6.497255   6.147095
    28  O    6.505778   3.158110   4.312342   5.287049   5.291855
    29  N    6.710800   2.974722   4.183479   5.295310   5.424842
    30  H    7.891424  11.481318  10.400492   9.125165   9.033850
    31  H    6.696860  10.754600  10.064494   8.748861   8.037534
    32  H    2.614380   6.558611   5.866936   4.580838   3.891001
    33  H    2.611599   6.561985   5.870304   4.585787   3.893207
    34  H    2.086756   4.915992   3.905435   2.648078   2.695156
    35  H    2.087739   4.910357   3.900089   2.639218   2.689988
    36  H    4.366137   2.058722   1.087013   2.064452   3.243722
    37  H    2.886418   4.778614   4.881091   4.221263   3.076854
    38  H    4.258357   4.241036   4.880452   4.774902   3.801878
    39  H    5.739957   6.541535   7.177884   6.892518   5.706928
    40  H    4.803530   6.904741   7.178261   6.518412   5.248413
    41  H    4.932456   3.243934   4.349723   4.728256   4.015286
    42  H    6.197183   2.268916   3.339765   4.539595   4.875205
    43  H    7.685203   3.823956   4.976782   6.165645   6.382011
                   16         17         18         19         20
    16  C    0.000000
    17  C    1.405711   0.000000
    18  C    2.513215   3.618143   0.000000
    19  C    1.488281   2.550007   1.404284   0.000000
    20  C    2.515113   3.217846   2.415355   1.404515   0.000000
    21  C    3.800762   4.542229   2.795829   2.436933   1.395589
    22  C    4.281493   5.192350   2.402237   2.793213   2.401857
    23  C    3.797591   4.834733   1.393603   2.435037   2.794768
    24  N    2.429095   1.386602   3.964199   2.941123   3.211840
    25  Br   6.198985   7.074061   4.172139   4.710705   4.172795
    26  S    4.005191   2.737759   5.632990   4.581416   4.593385
    27  O    4.899412   3.830645   5.989983   5.088938   4.880969
    28  O    4.402096   3.187212   6.356853   5.111747   4.943910
    29  N    4.588978   3.230403   6.274805   5.423834   5.796289
    30  H   10.239609  11.393236  10.093111  10.436744  11.223674
    31  H    8.788613  10.166388   7.730990   8.365657   8.903803
    32  H    4.786221   6.082663   4.275299   4.763638   5.741782
    33  H    4.780537   6.081423   4.672854   4.747098   5.385321
    34  H    4.012512   4.929486   5.150634   4.760514   5.585085
    35  H    4.016708   4.928961   4.789241   4.773787   5.926479
    36  H    3.793899   3.251610   6.121264   5.282053   6.117151
    37  H    2.724830   3.799673   1.085520   2.161074   3.403033
    38  H    2.730145   3.099136   3.404437   2.163119   1.086298
    39  H    4.669157   5.269231   3.880525   3.418023   2.155290
    40  H    4.665990   5.712492   2.153946   3.416570   3.879476
    41  H    2.635599   2.087772   3.492287   2.587452   2.651966
    42  H    4.273085   2.913673   6.220724   5.342287   5.862340
    43  H    5.572485   4.192354   7.274256   6.398223   6.675695
                   21         22         23         24         25
    21  C    0.000000
    22  C    1.392354   0.000000
    23  C    2.429789   1.393914   0.000000
    24  N    4.349331   5.077087   4.934433   0.000000
    25  Br   2.868797   1.917493   2.869600   6.824737   0.000000
    26  S    5.634275   6.499839   6.515035   1.691338   8.117373
    27  O    5.621223   6.436185   6.613882   2.499505   7.819069
    28  O    6.063835   7.126016   7.268467   2.589433   8.760946
    29  N    6.888408   7.554686   7.298444   2.587203   9.225328
    30  H   11.658706  11.335972  10.564009  12.649969  12.285481
    31  H    8.865057   8.264477   7.675182  11.133299   8.726030
    32  H    6.233483   5.850496   4.903127   7.169384   7.152524
    33  H    5.897415   5.821247   5.246553   7.180532   7.119983
    34  H    6.588944   6.850665   6.218928   6.256604   8.521187
    35  H    6.888042   6.871924   5.928337   6.241440   8.544732
    36  H    7.491839   8.075159   7.493218   4.374155   9.992606
    37  H    3.881305   3.383356   2.142961   4.327819   5.012388
    38  H    2.144172   3.382824   3.880964   3.030425   5.012771
    39  H    1.084704   2.159838   3.413785   4.937308   2.981266
    40  H    3.412874   2.160190   1.084709   5.830652   2.980147
    41  H    3.580443   4.264811   4.244897   1.015888   5.926390
    42  H    7.073063   7.733034   7.374469   2.740620   9.502861
    43  H    7.735623   8.453324   8.261312   3.502418  10.072917
                   26         27         28         29         30
    26  S    0.000000
    27  O    1.461211   0.000000
    28  O    1.464275   2.522059   0.000000
    29  N    1.677818   2.547370   2.614671   0.000000
    30  H   14.110355  15.135430  14.121239  14.325554   0.000000
    31  H   12.758139  13.446109  12.972108  13.303756   4.313779
    32  H    8.777116   9.607554   9.094612   9.104614   5.841965
    33  H    8.700933   9.576120   8.757820   9.272305   5.858543
    34  H    7.544953   8.698203   7.432209   7.857666   6.715130
    35  H    7.630722   8.730428   7.824768   7.657461   6.702583
    36  H    4.873801   6.293205   4.729937   4.493184  10.661716
    37  H    5.999744   6.464454   6.791466   6.364939   9.641677
    38  H    4.141818   4.520604   4.211988   5.509733  11.647642
    39  H    5.997880   5.845693   6.290622   7.403540  12.380036
    40  H    7.411416   7.461257   8.249198   8.068321  10.500126
    41  H    2.290780   2.523423   3.254871   3.336397  12.800662
    42  H    2.215175   3.399802   2.775407   1.026555  13.617246
    43  H    2.227780   2.821816   2.870403   1.023942  15.248852
                   31         32         33         34         35
    31  H    0.000000
    32  H    4.358196   0.000000
    33  H    4.366099   1.778928   0.000000
    34  H    6.586860   3.082897   2.518472   0.000000
    35  H    6.580974   2.516173   3.082407   1.779633   0.000000
    36  H   10.729094   6.572489   6.576949   4.363734   4.357608
    37  H    7.529802   3.813573   4.592221   4.928471   4.208809
    38  H    9.553221   6.374651   5.807952   5.701382   6.275049
    39  H    9.489150   7.142555   6.630792   7.357418   7.818578
    40  H    7.431752   4.979312   5.583381   6.767316   6.274448
    41  H   10.945112   7.163405   7.194149   6.622739   6.586533
    42  H   12.858263   8.602091   8.762444   7.151009   6.952388
    43  H   14.305498  10.103144  10.234519   8.739553   8.583904
                   36         37         38         39         40
    36  H    0.000000
    37  H    5.878686   0.000000
    38  H    5.872834   4.308390   0.000000
    39  H    8.219280   4.966005   2.467144   0.000000
    40  H    8.223407   2.467306   4.965668   4.310764   0.000000
    41  H    5.276663   4.024011   2.658501   4.157338   5.146305
    42  H    3.524048   6.212012   5.566876   7.657998   8.145512
    43  H    5.133756   7.383015   6.307758   8.170635   9.035245
                   41         42         43
    41  H    0.000000
    42  H    3.659107   0.000000
    43  H    4.198900   1.675500   0.000000
 Stoichiometry    C16H14Br2N6O4S(1-,2)
 Framework group  C1[X(C16H14Br2N6O4S)]
 Deg. of freedom   123
 Full point group                 C1      NOp   1
 Largest Abelian subgroup         C1      NOp   1
 Largest concise Abelian subgroup C1      NOp   1
                         Standard orientation:                         
 ---------------------------------------------------------------------
 Center     Atomic      Atomic             Coordinates (Angstroms)
 Number     Number       Type             X           Y           Z
 ---------------------------------------------------------------------
      1          6           0       -4.491692   -1.489012    0.033967
      2          7           0       -5.508553   -2.362467    0.047758
      3          6           0       -6.731972   -1.836860    0.056060
      4          6           0       -6.937292   -0.455679    0.050358
      5          6           0       -5.811816    0.359320    0.036631
      6          7           0       -4.577630   -0.156655    0.028223
      7         35           0       -8.690906    0.280274    0.060584
      8          8           0       -3.282139   -2.066537    0.023863
      9          6           0       -2.126659   -1.209501   -0.006516
     10          6           0       -0.930300   -2.147302   -0.024231
     11          8           0        0.222353   -1.283627   -0.052265
     12          7           0        3.901376   -2.994366   -0.133087
     13          6           0        2.766277   -3.683355   -0.101481
     14          7           0        1.531900   -3.181800   -0.080932
     15          6           0        1.437911   -1.848812   -0.082421
     16          6           0        2.552001   -0.984963   -0.093625
     17          6           0        3.788768   -1.652357   -0.125495
     18          6           0        1.747652    1.168114   -1.110251
     19          6           0        2.417765    0.497128   -0.074520
     20          6           0        2.957849    1.253802    0.978294
     21          6           0        2.836402    2.643927    1.000023
     22          6           0        2.164309    3.278619   -0.041182
     23          6           0        1.615959    2.555436   -1.099158
     24          7           0        4.978137   -0.944166   -0.206311
     25         35           0        1.988139    5.187875   -0.019179
     26         16           0        6.506974   -1.552305    0.185413
     27          8           0        7.420353   -0.436005   -0.048576
     28          8           0        6.474331   -2.180800    1.507544
     29          7           0        6.712403   -2.668658   -1.050154
     30          1           0       -7.568864   -2.531536    0.067042
     31          1           0       -5.893509    1.443467    0.032141
     32          1           0       -2.148205   -0.580252   -0.901206
     33          1           0       -2.110034   -0.564999    0.877247
     34          1           0       -0.906385   -2.777208    0.869534
     35          1           0       -0.942825   -2.788897   -0.909687
     36          1           0        2.854580   -4.766773   -0.099459
     37          1           0        1.325816    0.604229   -1.936351
     38          1           0        3.470078    0.757104    1.797413
     39          1           0        3.255484    3.214779    1.821656
     40          1           0        1.096366    3.060658   -1.906231
     41          1           0        4.959915    0.067790   -0.293724
     42          1           0        5.983936   -3.384240   -0.944828
     43          1           0        7.635304   -3.100961   -0.951045
 ---------------------------------------------------------------------
 Rotational constants (GHZ):      0.1340594      0.0354273      0.0284219
 Standard basis: 6-31G(d) (6D, 7F)
 There are   497 symmetry adapted cartesian basis functions of A   symmetry.
 There are   497 symmetry adapted basis functions of A   symmetry.
   497 basis functions,  1002 primitive gaussians,   497 cartesian basis functions
   136 alpha electrons      135 beta electrons
       nuclear repulsion energy      3616.9196443146 Hartrees.
 NAtoms=   43 NActive=   43 NUniq=   43 SFac= 1.00D+00 NAtFMM=   60 NAOKFM=F Big=F
 Integral buffers will be    262144 words long.
 Raffenetti 2 integral format.
 Two-electron integral symmetry is turned on.
 One-electron integrals computed using PRISM.
 NBasis=   497 RedAO= T EigKep=  4.35D-04  NBF=   497
 NBsUse=   497 1.00D-06 EigRej= -1.00D+00 NBFU=   497
 ExpMin= 1.17D-01 ExpMax= 5.74D+05 ExpMxC= 5.74D+03 IAcc=2 IRadAn=         4 AccDes= 0.00D+00
 Harris functional with IExCor=  402 and IRadAn=       4 diagonalized for initial guess.
 HarFok:  IExCor=  402 AccDes= 0.00D+00 IRadAn=         4 IDoV= 1 UseB2=F ITyADJ=14
 ICtDFT=  3500011 ScaDFX=  1.000000  1.000000  1.000000  1.000000
 FoFCou: FMM=F IPFlag=           0 FMFlag=      100000 FMFlg1=           0
         NFxFlg=           0 DoJE=T BraDBF=F KetDBF=T FulRan=T
         wScrn=  0.000000 ICntrl=     500 IOpCl=  0 I1Cent=   200000004 NGrid=           0
         NMat0=    1 NMatS0=      1 NMatT0=    0 NMatD0=    1 NMtDS0=    0 NMtDT0=    0
 Petite list used in FoFCou.
 Initial guess <Sx>= 0.0000 <Sy>= 0.0000 <Sz>= 0.5000 <S**2>= 0.7500 S= 0.5000
 Requested convergence on RMS density matrix=1.00D-08 within 128 cycles.
 Requested convergence on MAX density matrix=1.00D-06.
 Requested convergence on             energy=1.00D-06.
 No special actions if energy rises.
 Integral accuracy reduced to 1.0D-05 until final iterations.
 EnCoef did   100 forward-backward iterations
 Initial convergence to 1.0D-05 achieved.  Increase integral accuracy.
 EnCoef did   100 forward-backward iterations
 EnCoef did     2 forward-backward iterations
 SCF Done:  E(UB3LYP) =  -6789.07806615     A.U. after   31 cycles
            NFock= 31  Conv=0.86D-08     -V/T= 2.0065
 <Sx>= 0.0000 <Sy>= 0.0000 <Sz>= 0.5000 <S**2>= 0.7564 S= 0.5032
 <L.S>= 0.000000000000E+00
 Annihilation of the first spin contaminant:
 S**2 before annihilation     0.7564,   after     0.7500

 **********************************************************************

            Population analysis using the SCF density.

 **********************************************************************

 Orbital symmetries:
 Alpha Orbitals:
       Occupied  (A) (A) (A) (A) (A) (A) (A) (A) (A) (A) (A) (A)
                 (A) (A) (A) (A) (A) (A) (A) (A) (A) (A) (A) (A)
                 (A) (A) (A) (A) (A) (A) (A) (A) (A) (A) (A) (A)
                 (A) (A) (A) (A) (A) (A) (A) (A) (A) (A) (A) (A)
                 (A) (A) (A) (A) (A) (A) (A) (A) (A) (A) (A) (A)
                 (A) (A) (A) (A) (A) (A) (A) (A) (A) (A) (A) (A)
                 (A) (A) (A) (A) (A) (A) (A) (A) (A) (A) (A) (A)
                 (A) (A) (A) (A) (A) (A) (A) (A) (A) (A) (A) (A)
                 (A) (A) (A) (A) (A) (A) (A) (A) (A) (A) (A) (A)
                 (A) (A) (A) (A) (A) (A) (A) (A) (A) (A) (A) (A)
                 (A) (A) (A) (A) (A) (A) (A) (A) (A) (A) (A) (A)
                 (A) (A) (A) (A)
       Virtual   (A) (A) (A) (A) (A) (A) (A) (A) (A) (A) (A) (A)
                 (A) (A) (A) (A) (A) (A) (A) (A) (A) (A) (A) (A)
                 (A) (A) (A) (A) (A) (A) (A) (A) (A) (A) (A) (A)
                 (A) (A) (A) (A) (A) (A) (A) (A) (A) (A) (A) (A)
                 (A) (A) (A) (A) (A) (A) (A) (A) (A) (A) (A) (A)
                 (A) (A) (A) (A) (A) (A) (A) (A) (A) (A) (A) (A)
                 (A) (A) (A) (A) (A) (A) (A) (A) (A) (A) (A) (A)
                 (A) (A) (A) (A) (A) (A) (A) (A) (A) (A) (A) (A)
                 (A) (A) (A) (A) (A) (A) (A) (A) (A) (A) (A) (A)
                 (A) (A) (A) (A) (A) (A) (A) (A) (A) (A) (A) (A)
                 (A) (A) (A) (A) (A) (A) (A) (A) (A) (A) (A) (A)
                 (A) (A) (A) (A) (A) (A) (A) (A) (A) (A) (A) (A)
                 (A) (A) (A) (A) (A) (A) (A) (A) (A) (A) (A) (A)
                 (A) (A) (A) (A) (A) (A) (A) (A) (A) (A) (A) (A)
                 (A) (A) (A) (A) (A) (A) (A) (A) (A) (A) (A) (A)
                 (A) (A) (A) (A) (A) (A) (A) (A) (A) (A) (A) (A)
                 (A) (A) (A) (A) (A) (A) (A) (A) (A) (A) (A) (A)
                 (A) (A) (A) (A) (A) (A) (A) (A) (A) (A) (A) (A)
                 (A) (A) (A) (A) (A) (A) (A) (A) (A) (A) (A) (A)
                 (A) (A) (A) (A) (A) (A) (A) (A) (A) (A) (A) (A)
                 (A) (A) (A) (A) (A) (A) (A) (A) (A) (A) (A) (A)
                 (A) (A) (A) (A) (A) (A) (A) (A) (A) (A) (A) (A)
                 (A) (A) (A) (A) (A) (A) (A) (A) (A) (A) (A) (A)
                 (A) (A) (A) (A) (A) (A) (A) (A) (A) (A) (A) (A)
                 (A) (A) (A) (A) (A) (A) (A) (A) (A) (A) (A) (A)
                 (A) (A) (A) (A) (A) (A) (A) (A) (A) (A) (A) (A)
                 (A) (A) (A) (A) (A) (A) (A) (A) (A) (A) (A) (A)
                 (A) (A) (A) (A) (A) (A) (A) (A) (A) (A) (A) (A)
                 (A) (A) (A) (A) (A) (A) (A) (A) (A) (A) (A) (A)
                 (A) (A) (A) (A) (A) (A) (A) (A) (A) (A) (A) (A)
                 (A)
 Beta  Orbitals:
       Occupied  (A) (A) (A) (A) (A) (A) (A) (A) (A) (A) (A) (A)
                 (A) (A) (A) (A) (A) (A) (A) (A) (A) (A) (A) (A)
                 (A) (A) (A) (A) (A) (A) (A) (A) (A) (A) (A) (A)
                 (A) (A) (A) (A) (A) (A) (A) (A) (A) (A) (A) (A)
                 (A) (A) (A) (A) (A) (A) (A) (A) (A) (A) (A) (A)
                 (A) (A) (A) (A) (A) (A) (A) (A) (A) (A) (A) (A)
                 (A) (A) (A) (A) (A) (A) (A) (A) (A) (A) (A) (A)
                 (A) (A) (A) (A) (A) (A) (A) (A) (A) (A) (A) (A)
                 (A) (A) (A) (A) (A) (A) (A) (A) (A) (A) (A) (A)
                 (A) (A) (A) (A) (A) (A) (A) (A) (A) (A) (A) (A)
                 (A) (A) (A) (A) (A) (A) (A) (A) (A) (A) (A) (A)
                 (A) (A) (A)
       Virtual   (A) (A) (A) (A) (A) (A) (A) (A) (A) (A) (A) (A)
                 (A) (A) (A) (A) (A) (A) (A) (A) (A) (A) (A) (A)
                 (A) (A) (A) (A) (A) (A) (A) (A) (A) (A) (A) (A)
                 (A) (A) (A) (A) (A) (A) (A) (A) (A) (A) (A) (A)
                 (A) (A) (A) (A) (A) (A) (A) (A) (A) (A) (A) (A)
                 (A) (A) (A) (A) (A) (A) (A) (A) (A) (A) (A) (A)
                 (A) (A) (A) (A) (A) (A) (A) (A) (A) (A) (A) (A)
                 (A) (A) (A) (A) (A) (A) (A) (A) (A) (A) (A) (A)
                 (A) (A) (A) (A) (A) (A) (A) (A) (A) (A) (A) (A)
                 (A) (A) (A) (A) (A) (A) (A) (A) (A) (A) (A) (A)
                 (A) (A) (A) (A) (A) (A) (A) (A) (A) (A) (A) (A)
                 (A) (A) (A) (A) (A) (A) (A) (A) (A) (A) (A) (A)
                 (A) (A) (A) (A) (A) (A) (A) (A) (A) (A) (A) (A)
                 (A) (A) (A) (A) (A) (A) (A) (A) (A) (A) (A) (A)
                 (A) (A) (A) (A) (A) (A) (A) (A) (A) (A) (A) (A)
                 (A) (A) (A) (A) (A) (A) (A) (A) (A) (A) (A) (A)
                 (A) (A) (A) (A) (A) (A) (A) (A) (A) (A) (A) (A)
                 (A) (A) (A) (A) (A) (A) (A) (A) (A) (A) (A) (A)
                 (A) (A) (A) (A) (A) (A) (A) (A) (A) (A) (A) (A)
                 (A) (A) (A) (A) (A) (A) (A) (A) (A) (A) (A) (A)
                 (A) (A) (A) (A) (A) (A) (A) (A) (A) (A) (A) (A)
                 (A) (A) (A) (A) (A) (A) (A) (A) (A) (A) (A) (A)
                 (A) (A) (A) (A) (A) (A) (A) (A) (A) (A) (A) (A)
                 (A) (A) (A) (A) (A) (A) (A) (A) (A) (A) (A) (A)
                 (A) (A) (A) (A) (A) (A) (A) (A) (A) (A) (A) (A)
                 (A) (A) (A) (A) (A) (A) (A) (A) (A) (A) (A) (A)
                 (A) (A) (A) (A) (A) (A) (A) (A) (A) (A) (A) (A)
                 (A) (A) (A) (A) (A) (A) (A) (A) (A) (A) (A) (A)
                 (A) (A) (A) (A) (A) (A) (A) (A) (A) (A) (A) (A)
                 (A) (A) (A) (A) (A) (A) (A) (A) (A) (A) (A) (A)
                 (A) (A)
 The electronic state is 2-A.
 Alpha  occ. eigenvalues -- -482.82673-482.82264 -89.05796 -61.78852 -61.78448
 Alpha  occ. eigenvalues --  -56.30978 -56.30583 -56.30569 -56.30562 -56.30179
 Alpha  occ. eigenvalues --  -56.30166 -19.09648 -19.08852 -19.06646 -19.06406
 Alpha  occ. eigenvalues --  -14.29472 -14.28920 -14.23590 -14.22750 -14.22206
 Alpha  occ. eigenvalues --  -14.21789 -10.20174 -10.19058 -10.18237 -10.15321
 Alpha  occ. eigenvalues --  -10.15048 -10.14574 -10.14447 -10.14083 -10.12527
 Alpha  occ. eigenvalues --  -10.12483 -10.10935 -10.10800 -10.10666 -10.10375
 Alpha  occ. eigenvalues --  -10.10268 -10.10211  -8.49993  -8.49588  -8.07935
 Alpha  occ. eigenvalues --   -6.45356  -6.44933  -6.44122  -6.44121  -6.43728
 Alpha  occ. eigenvalues --   -6.43721  -6.04457  -6.04375  -6.04299  -2.56936
 Alpha  occ. eigenvalues --   -2.56576  -2.56575  -2.56516  -2.56167  -2.56162
 Alpha  occ. eigenvalues --   -2.55591  -2.55591  -2.55199  -2.55199  -1.04342
 Alpha  occ. eigenvalues --   -0.99398  -0.98753  -0.92318  -0.89714  -0.86625
 Alpha  occ. eigenvalues --   -0.85180  -0.83309  -0.78335  -0.78016  -0.77345
 Alpha  occ. eigenvalues --   -0.73238  -0.72539  -0.69694  -0.67646  -0.66294
 Alpha  occ. eigenvalues --   -0.63575  -0.62737  -0.59657  -0.57250  -0.56699
 Alpha  occ. eigenvalues --   -0.55174  -0.52514  -0.52477  -0.51178  -0.49988
 Alpha  occ. eigenvalues --   -0.47751  -0.47546  -0.44667  -0.43928  -0.42971
 Alpha  occ. eigenvalues --   -0.42349  -0.42108  -0.41570  -0.40651  -0.39272
 Alpha  occ. eigenvalues --   -0.37658  -0.37314  -0.36830  -0.36584  -0.36282
 Alpha  occ. eigenvalues --   -0.34567  -0.34128  -0.33532  -0.33353  -0.33183
 Alpha  occ. eigenvalues --   -0.32166  -0.31482  -0.30750  -0.29358  -0.28040
 Alpha  occ. eigenvalues --   -0.27821  -0.26942  -0.26860  -0.26687  -0.26258
 Alpha  occ. eigenvalues --   -0.25545  -0.25210  -0.24694  -0.24404  -0.22962
 Alpha  occ. eigenvalues --   -0.22116  -0.21535  -0.21068  -0.20875  -0.20777
 Alpha  occ. eigenvalues --   -0.20484  -0.20092  -0.20022  -0.17301  -0.17197
 Alpha  occ. eigenvalues --   -0.16807  -0.15998  -0.14176  -0.13940  -0.13386
 Alpha  occ. eigenvalues --    0.03274
 Alpha virt. eigenvalues --    0.04526   0.08016   0.08345   0.08590   0.09494
 Alpha virt. eigenvalues --    0.09545   0.10100   0.13107   0.15220   0.17543
 Alpha virt. eigenvalues --    0.18275   0.19442   0.19744   0.20065   0.21000
 Alpha virt. eigenvalues --    0.21844   0.22295   0.22482   0.23123   0.23239
 Alpha virt. eigenvalues --    0.23535   0.24070   0.24533   0.25099   0.25250
 Alpha virt. eigenvalues --    0.25329   0.25848   0.27689   0.28507   0.29949
 Alpha virt. eigenvalues --    0.30158   0.30602   0.32260   0.33873   0.34756
 Alpha virt. eigenvalues --    0.34938   0.36206   0.37158   0.37654   0.38080
 Alpha virt. eigenvalues --    0.39990   0.40593   0.41493   0.41996   0.42394
 Alpha virt. eigenvalues --    0.43570   0.43773   0.43944   0.44413   0.46912
 Alpha virt. eigenvalues --    0.47382   0.47645   0.48527   0.51516   0.52264
 Alpha virt. eigenvalues --    0.52971   0.53312   0.54216   0.54711   0.54900
 Alpha virt. eigenvalues --    0.54942   0.55035   0.55227   0.56061   0.56786
 Alpha virt. eigenvalues --    0.57087   0.57506   0.57563   0.57745   0.58980
 Alpha virt. eigenvalues --    0.59428   0.60526   0.61003   0.62586   0.62627
 Alpha virt. eigenvalues --    0.62711   0.63363   0.64028   0.64074   0.64884
 Alpha virt. eigenvalues --    0.65812   0.65860   0.67028   0.67407   0.67756
 Alpha virt. eigenvalues --    0.68604   0.68748   0.69655   0.69827   0.69874
 Alpha virt. eigenvalues --    0.70110   0.70366   0.72053   0.72744   0.73133
 Alpha virt. eigenvalues --    0.73930   0.74346   0.74686   0.75322   0.75512
 Alpha virt. eigenvalues --    0.76110   0.76367   0.77497   0.78594   0.78960
 Alpha virt. eigenvalues --    0.81336   0.81448   0.82088   0.83455   0.84071
 Alpha virt. eigenvalues --    0.84344   0.84616   0.84981   0.86969   0.87966
 Alpha virt. eigenvalues --    0.88923   0.89300   0.89688   0.89772   0.90256
 Alpha virt. eigenvalues --    0.90567   0.91177   0.92126   0.93078   0.93427
 Alpha virt. eigenvalues --    0.93677   0.94110   0.94526   0.95126   0.95772
 Alpha virt. eigenvalues --    0.95914   0.96510   0.97304   0.97744   0.98477
 Alpha virt. eigenvalues --    0.99187   0.99323   0.99803   1.00673   1.01079
 Alpha virt. eigenvalues --    1.01832   1.02237   1.02787   1.03492   1.03907
 Alpha virt. eigenvalues --    1.05402   1.06777   1.07141   1.07859   1.10300
 Alpha virt. eigenvalues --    1.10919   1.11060   1.11443   1.12435   1.13572
 Alpha virt. eigenvalues --    1.14649   1.15694   1.16545   1.17446   1.18021
 Alpha virt. eigenvalues --    1.18916   1.20088   1.20556   1.20926   1.22876
 Alpha virt. eigenvalues --    1.23772   1.24518   1.25218   1.26217   1.27231
 Alpha virt. eigenvalues --    1.28932   1.30655   1.30975   1.31843   1.33244
 Alpha virt. eigenvalues --    1.34423   1.34919   1.35385   1.35826   1.38138
 Alpha virt. eigenvalues --    1.42117   1.43279   1.43567   1.43998   1.45739
 Alpha virt. eigenvalues --    1.46458   1.47874   1.49029   1.50018   1.51317
 Alpha virt. eigenvalues --    1.52196   1.53425   1.53942   1.54726   1.55119
 Alpha virt. eigenvalues --    1.57034   1.57835   1.58752   1.59283   1.59947
 Alpha virt. eigenvalues --    1.60153   1.60746   1.61688   1.61940   1.63751
 Alpha virt. eigenvalues --    1.64183   1.64628   1.66142   1.66358   1.69137
 Alpha virt. eigenvalues --    1.70845   1.71550   1.72396   1.73154   1.75844
 Alpha virt. eigenvalues --    1.77136   1.78300   1.79117   1.82819   1.84070
 Alpha virt. eigenvalues --    1.84729   1.85499   1.85848   1.88241   1.89205
 Alpha virt. eigenvalues --    1.89499   1.89975   1.90633   1.90825   1.91258
 Alpha virt. eigenvalues --    1.92108   1.92483   1.93310   1.94137   1.94483
 Alpha virt. eigenvalues --    1.95431   1.97016   1.99955   2.00183   2.02130
 Alpha virt. eigenvalues --    2.02924   2.03720   2.04309   2.05906   2.07663
 Alpha virt. eigenvalues --    2.08327   2.08941   2.09663   2.10138   2.13220
 Alpha virt. eigenvalues --    2.14248   2.14779   2.15549   2.16490   2.20143
 Alpha virt. eigenvalues --    2.20894   2.21987   2.22306   2.22755   2.23438
 Alpha virt. eigenvalues --    2.24411   2.26191   2.27453   2.28801   2.28824
 Alpha virt. eigenvalues --    2.29201   2.30614   2.31203   2.32108   2.32647
 Alpha virt. eigenvalues --    2.32892   2.34632   2.35813   2.37450   2.38323
 Alpha virt. eigenvalues --    2.39254   2.39529   2.41048   2.41304   2.42658
 Alpha virt. eigenvalues --    2.44317   2.45527   2.46908   2.48361   2.49181
 Alpha virt. eigenvalues --    2.49478   2.52064   2.52777   2.54860   2.57280
 Alpha virt. eigenvalues --    2.60961   2.61624   2.64839   2.66040   2.68070
 Alpha virt. eigenvalues --    2.68602   2.68812   2.70850   2.71189   2.72261
 Alpha virt. eigenvalues --    2.73132   2.74860   2.76499   2.76808   2.78659
 Alpha virt. eigenvalues --    2.79616   2.81709   2.82383   2.83995   2.84412
 Alpha virt. eigenvalues --    2.84737   2.85846   2.87177   2.87267   2.89682
 Alpha virt. eigenvalues --    2.92145   2.95214   2.96970   3.00259   3.02819
 Alpha virt. eigenvalues --    3.05844   3.09303   3.14094   3.17467   3.21561
 Alpha virt. eigenvalues --    3.36224   3.37559   3.45606   3.50021   3.56381
 Alpha virt. eigenvalues --    3.80035   3.89314   4.04605   4.09937   4.10393
 Alpha virt. eigenvalues --    4.12780   4.14573   4.16534   4.17060   4.19929
 Alpha virt. eigenvalues --    4.21730   4.23660   4.24102   4.30466   4.33672
 Alpha virt. eigenvalues --    4.34427   4.36111   4.38691   4.41689   4.43475
 Alpha virt. eigenvalues --    4.50233   4.54686   4.57678   4.65350   4.66703
 Alpha virt. eigenvalues --    4.75432   4.84992   8.68853   8.69336  72.86063
 Alpha virt. eigenvalues --   72.87580
  Beta  occ. eigenvalues -- -482.82674-482.82264 -89.05795 -61.78853 -61.78447
  Beta  occ. eigenvalues --  -56.30977 -56.30583 -56.30570 -56.30564 -56.30179
  Beta  occ. eigenvalues --  -56.30163 -19.09641 -19.08862 -19.06644 -19.06404
  Beta  occ. eigenvalues --  -14.29467 -14.28919 -14.23618 -14.22756 -14.22024
  Beta  occ. eigenvalues --  -14.21576 -10.20209 -10.18990 -10.18144 -10.15321
  Beta  occ. eigenvalues --  -10.15047 -10.14386 -10.14181 -10.14151 -10.12283
  Beta  occ. eigenvalues --  -10.12211 -10.10956 -10.10810 -10.10554 -10.10310
  Beta  occ. eigenvalues --  -10.10213 -10.10107  -8.49994  -8.49587  -8.07934
  Beta  occ. eigenvalues --   -6.45356  -6.44938  -6.44125  -6.44122  -6.43723
  Beta  occ. eigenvalues --   -6.43719  -6.04456  -6.04373  -6.04298  -2.56936
  Beta  occ. eigenvalues --   -2.56577  -2.56575  -2.56518  -2.56166  -2.56162
  Beta  occ. eigenvalues --   -2.55593  -2.55593  -2.55196  -2.55196  -1.04334
  Beta  occ. eigenvalues --   -0.99364  -0.98728  -0.92314  -0.89558  -0.86292
  Beta  occ. eigenvalues --   -0.85077  -0.83279  -0.77843  -0.77807  -0.77255
  Beta  occ. eigenvalues --   -0.73171  -0.72308  -0.69608  -0.67535  -0.66160
  Beta  occ. eigenvalues --   -0.63366  -0.62533  -0.59581  -0.56995  -0.56325
  Beta  occ. eigenvalues --   -0.54853  -0.52447  -0.52377  -0.51098  -0.49756
  Beta  occ. eigenvalues --   -0.47705  -0.47453  -0.44594  -0.43849  -0.42878
  Beta  occ. eigenvalues --   -0.42218  -0.41985  -0.41524  -0.40609  -0.39207
  Beta  occ. eigenvalues --   -0.37498  -0.37169  -0.36749  -0.36516  -0.36082
  Beta  occ. eigenvalues --   -0.34448  -0.34006  -0.33224  -0.33163  -0.33026
  Beta  occ. eigenvalues --   -0.32040  -0.31019  -0.30615  -0.28867  -0.27877
  Beta  occ. eigenvalues --   -0.27725  -0.26890  -0.26787  -0.26592  -0.26223
  Beta  occ. eigenvalues --   -0.25344  -0.25184  -0.24667  -0.24119  -0.22645
  Beta  occ. eigenvalues --   -0.21873  -0.20899  -0.20812  -0.20736  -0.20422
  Beta  occ. eigenvalues --   -0.20087  -0.20005  -0.19659  -0.17128  -0.16970
  Beta  occ. eigenvalues --   -0.16505  -0.15529  -0.13935  -0.13427  -0.12742
  Beta virt. eigenvalues --    0.07155   0.08093   0.08170   0.08620   0.09709
  Beta virt. eigenvalues --    0.09787   0.10026   0.10207   0.13125   0.15247
  Beta virt. eigenvalues --    0.17601   0.18299   0.19502   0.19770   0.20113
  Beta virt. eigenvalues --    0.21059   0.22074   0.22468   0.22666   0.23458
  Beta virt. eigenvalues --    0.23616   0.24027   0.24557   0.25008   0.25160
  Beta virt. eigenvalues --    0.25445   0.25620   0.26121   0.27833   0.28545
  Beta virt. eigenvalues --    0.29975   0.30228   0.30750   0.32341   0.34017
  Beta virt. eigenvalues --    0.34999   0.35157   0.36343   0.37200   0.37746
  Beta virt. eigenvalues --    0.38308   0.40145   0.40790   0.41604   0.42162
  Beta virt. eigenvalues --    0.42502   0.43618   0.43854   0.44071   0.44500
  Beta virt. eigenvalues --    0.47081   0.47445   0.47800   0.48674   0.51598
  Beta virt. eigenvalues --    0.52347   0.53093   0.53398   0.54378   0.54791
  Beta virt. eigenvalues --    0.54880   0.55061   0.55138   0.55302   0.56173
  Beta virt. eigenvalues --    0.56908   0.57347   0.57606   0.57670   0.57826
  Beta virt. eigenvalues --    0.59036   0.59804   0.60658   0.61088   0.62706
  Beta virt. eigenvalues --    0.62731   0.62819   0.63507   0.64143   0.64383
  Beta virt. eigenvalues --    0.65102   0.65993   0.66028   0.67274   0.67548
  Beta virt. eigenvalues --    0.67886   0.68726   0.68935   0.69783   0.70020
  Beta virt. eigenvalues --    0.70272   0.70685   0.70941   0.72231   0.72898
  Beta virt. eigenvalues --    0.73309   0.74155   0.74557   0.74897   0.75589
  Beta virt. eigenvalues --    0.75777   0.76288   0.76482   0.77687   0.78860
  Beta virt. eigenvalues --    0.79172   0.81465   0.81589   0.82189   0.83600
  Beta virt. eigenvalues --    0.84167   0.84550   0.84731   0.85002   0.87144
  Beta virt. eigenvalues --    0.88239   0.89170   0.89514   0.89740   0.89919
  Beta virt. eigenvalues --    0.90444   0.90628   0.91185   0.92262   0.93129
  Beta virt. eigenvalues --    0.93504   0.93726   0.94248   0.94704   0.95244
  Beta virt. eigenvalues --    0.95988   0.96113   0.96582   0.97398   0.98008
  Beta virt. eigenvalues --    0.98572   0.99378   0.99415   0.99901   1.00733
  Beta virt. eigenvalues --    1.01148   1.01937   1.02304   1.02882   1.03940
  Beta virt. eigenvalues --    1.04063   1.05467   1.06846   1.07224   1.07932
  Beta virt. eigenvalues --    1.10421   1.11020   1.11095   1.11552   1.12506
  Beta virt. eigenvalues --    1.13610   1.14755   1.15730   1.16648   1.17579
  Beta virt. eigenvalues --    1.18073   1.19024   1.20211   1.20675   1.21056
  Beta virt. eigenvalues --    1.22947   1.23839   1.24635   1.25321   1.26286
  Beta virt. eigenvalues --    1.27319   1.28990   1.30760   1.31064   1.32026
  Beta virt. eigenvalues --    1.33388   1.34612   1.35225   1.35749   1.35954
  Beta virt. eigenvalues --    1.38334   1.42198   1.43354   1.43640   1.44094
  Beta virt. eigenvalues --    1.45850   1.46511   1.47983   1.49234   1.50168
  Beta virt. eigenvalues --    1.51436   1.52366   1.53515   1.54134   1.54851
  Beta virt. eigenvalues --    1.55395   1.57714   1.58079   1.59144   1.59597
  Beta virt. eigenvalues --    1.60154   1.60452   1.61141   1.62064   1.62558
  Beta virt. eigenvalues --    1.64077   1.64258   1.65079   1.66200   1.66486
  Beta virt. eigenvalues --    1.69272   1.71054   1.71762   1.72609   1.73264
  Beta virt. eigenvalues --    1.75901   1.77215   1.78384   1.79228   1.82948
  Beta virt. eigenvalues --    1.84183   1.84783   1.85625   1.85977   1.88382
  Beta virt. eigenvalues --    1.89271   1.89579   1.89996   1.90712   1.90896
  Beta virt. eigenvalues --    1.91455   1.92153   1.92579   1.93442   1.94348
  Beta virt. eigenvalues --    1.94592   1.95689   1.97184   2.00134   2.00289
  Beta virt. eigenvalues --    2.02194   2.03057   2.03951   2.04452   2.05966
  Beta virt. eigenvalues --    2.07815   2.08434   2.09001   2.09745   2.10408
  Beta virt. eigenvalues --    2.13303   2.14365   2.14844   2.15732   2.16543
  Beta virt. eigenvalues --    2.20316   2.21025   2.22188   2.22478   2.22999
  Beta virt. eigenvalues --    2.23632   2.24673   2.26361   2.27655   2.28896
  Beta virt. eigenvalues --    2.28936   2.29879   2.31171   2.31822   2.32460
  Beta virt. eigenvalues --    2.32954   2.33307   2.35131   2.36025   2.37873
  Beta virt. eigenvalues --    2.38581   2.39444   2.39717   2.41364   2.41504
  Beta virt. eigenvalues --    2.42800   2.45009   2.46028   2.47214   2.48453
  Beta virt. eigenvalues --    2.49448   2.49865   2.52267   2.52960   2.55082
  Beta virt. eigenvalues --    2.57466   2.61227   2.61939   2.64970   2.66206
  Beta virt. eigenvalues --    2.68307   2.68751   2.68967   2.71183   2.71302
  Beta virt. eigenvalues --    2.72716   2.73470   2.75083   2.76617   2.76973
  Beta virt. eigenvalues --    2.78725   2.79808   2.81844   2.82514   2.84298
  Beta virt. eigenvalues --    2.84941   2.85021   2.85991   2.87334   2.87398
  Beta virt. eigenvalues --    2.89764   2.92271   2.95361   2.97137   3.00360
  Beta virt. eigenvalues --    3.03015   3.05950   3.09431   3.14182   3.17543
  Beta virt. eigenvalues --    3.21637   3.36292   3.37646   3.45714   3.50148
  Beta virt. eigenvalues --    3.56477   3.80039   3.89327   4.04620   4.10073
  Beta virt. eigenvalues --    4.10407   4.12924   4.14971   4.16728   4.17145
  Beta virt. eigenvalues --    4.20002   4.21837   4.23750   4.24321   4.30722
  Beta virt. eigenvalues --    4.33874   4.34895   4.36341   4.38759   4.41953
  Beta virt. eigenvalues --    4.43735   4.50485   4.54776   4.57868   4.65459
  Beta virt. eigenvalues --    4.66792   4.75619   4.85217   8.68849   8.69340
  Beta virt. eigenvalues --   72.86059  72.87586
          Condensed to atoms (all electrons):
               1          2          3          4          5          6
     1  C    4.335694   0.477129  -0.062323  -0.032660  -0.060809   0.419880
     2  N    0.477129   6.863626   0.410713  -0.017584  -0.034757  -0.089081
     3  C   -0.062323   0.410713   4.945483   0.464947  -0.057762  -0.031045
     4  C   -0.032660  -0.017584   0.464947   5.004591   0.470710  -0.019031
     5  C   -0.060809  -0.034757  -0.057762   0.470710   4.936279   0.411732
     6  N    0.419880  -0.089081  -0.031045  -0.019031   0.411732   6.929388
     7  Br   0.000956   0.004073  -0.051232   0.216657  -0.051074   0.003944
     8  O    0.293093  -0.082831   0.001457   0.000767   0.001344  -0.081114
     9  C   -0.023360   0.004232  -0.000169   0.000061   0.000576  -0.007087
    10  C    0.002950  -0.000005   0.000000   0.000002  -0.000009   0.001257
    11  O   -0.000008   0.000000   0.000000   0.000000   0.000000   0.000004
    12  N    0.000000   0.000000   0.000000   0.000000   0.000000   0.000000
    13  C    0.000000   0.000000   0.000000   0.000000   0.000000   0.000000
    14  N    0.000000   0.000000   0.000000   0.000000   0.000000   0.000000
    15  C    0.000000   0.000000   0.000000   0.000000   0.000000   0.000000
    16  C    0.000000   0.000000   0.000000   0.000000   0.000000   0.000000
    17  C    0.000000   0.000000   0.000000   0.000000   0.000000   0.000000
    18  C    0.000000   0.000000   0.000000   0.000000   0.000000   0.000000
    19  C    0.000000   0.000000   0.000000   0.000000   0.000000   0.000000
    20  C    0.000000   0.000000   0.000000   0.000000   0.000000   0.000000
    21  C    0.000000   0.000000   0.000000   0.000000   0.000000   0.000000
    22  C    0.000000   0.000000   0.000000   0.000000   0.000000   0.000000
    23  C    0.000000   0.000000   0.000000   0.000000   0.000000   0.000000
    24  N    0.000000   0.000000   0.000000   0.000000   0.000000   0.000000
    25  Br   0.000000   0.000000   0.000000   0.000000   0.000000   0.000000
    26  S    0.000000   0.000000   0.000000   0.000000   0.000000   0.000000
    27  O    0.000000   0.000000   0.000000   0.000000   0.000000   0.000000
    28  O    0.000000   0.000000   0.000000   0.000000   0.000000   0.000000
    29  N    0.000000   0.000000   0.000000   0.000000   0.000000   0.000000
    30  H    0.005293  -0.054625   0.379343  -0.071687   0.004260  -0.000494
    31  H    0.004488  -0.000525   0.004677  -0.073209   0.379180  -0.055303
    32  H   -0.003692  -0.000044   0.000036  -0.000025  -0.000070   0.008049
    33  H   -0.003716  -0.000069   0.000036  -0.000022  -0.000096   0.008009
    34  H    0.000010  -0.000017   0.000001   0.000000   0.000000   0.000000
    35  H   -0.000002  -0.000018   0.000001   0.000000   0.000000  -0.000001
    36  H    0.000000   0.000000   0.000000   0.000000   0.000000   0.000000
    37  H    0.000000   0.000000   0.000000   0.000000   0.000000   0.000000
    38  H    0.000000   0.000000   0.000000   0.000000   0.000000   0.000000
    39  H    0.000000   0.000000   0.000000   0.000000   0.000000   0.000000
    40  H    0.000000   0.000000   0.000000   0.000000   0.000000   0.000000
    41  H    0.000000   0.000000   0.000000   0.000000   0.000000   0.000000
    42  H    0.000000   0.000000   0.000000   0.000000   0.000000   0.000000
    43  H    0.000000   0.000000   0.000000   0.000000   0.000000   0.000000
               7          8          9         10         11         12
     1  C    0.000956   0.293093  -0.023360   0.002950  -0.000008   0.000000
     2  N    0.004073  -0.082831   0.004232  -0.000005   0.000000   0.000000
     3  C   -0.051232   0.001457  -0.000169   0.000000   0.000000   0.000000
     4  C    0.216657   0.000767   0.000061   0.000002   0.000000   0.000000
     5  C   -0.051074   0.001344   0.000576  -0.000009   0.000000   0.000000
     6  N    0.003944  -0.081114  -0.007087   0.001257   0.000004   0.000000
     7  Br  35.066105   0.000005  -0.000001   0.000000   0.000000   0.000000
     8  O    0.000005   8.246080   0.201510  -0.038382   0.001053   0.000000
     9  C   -0.000001   0.201510   4.890105   0.351550  -0.038230   0.000001
    10  C    0.000000  -0.038382   0.351550   4.894324   0.204096   0.000062
    11  O    0.000000   0.001053  -0.038230   0.204096   8.253483   0.000083
    12  N    0.000000   0.000000   0.000001   0.000062   0.000083   6.923357
    13  C    0.000000   0.000000  -0.000004   0.000538   0.002370   0.447113
    14  N    0.000000   0.000004   0.001259  -0.009514  -0.075323  -0.048643
    15  C    0.000000   0.000005   0.002384  -0.025999   0.290362  -0.034528
    16  C    0.000000   0.000000   0.000122   0.006298  -0.074772  -0.052225
    17  C    0.000000   0.000000   0.000004   0.000024   0.001354   0.427084
    18  C    0.000000   0.000000  -0.000001  -0.000107   0.003412  -0.000051
    19  C    0.000000   0.000000  -0.000076  -0.000231   0.000089   0.005153
    20  C    0.000000   0.000000  -0.000001   0.000004  -0.000527  -0.000037
    21  C    0.000000   0.000000   0.000000   0.000000  -0.000016   0.000001
    22  C    0.000000   0.000000   0.000000   0.000000   0.000010   0.000000
    23  C    0.000000   0.000000   0.000000   0.000005  -0.000159   0.000001
    24  N    0.000000   0.000000   0.000000   0.000001  -0.000032  -0.088681
    25  Br   0.000000   0.000000   0.000000   0.000000   0.000000   0.000000
    26  S    0.000000   0.000000   0.000000   0.000000   0.000000   0.004597
    27  O    0.000000   0.000000   0.000000   0.000000   0.000000  -0.000069
    28  O    0.000000   0.000000   0.000000   0.000000   0.000000  -0.003541
    29  N    0.000000   0.000000   0.000000   0.000000   0.000000  -0.018725
    30  H    0.001738  -0.000061   0.000003   0.000000   0.000000   0.000000
    31  H    0.001396  -0.000087  -0.000047  -0.000001   0.000000   0.000000
    32  H    0.000000  -0.032954   0.359781  -0.036359   0.004032   0.000000
    33  H    0.000000  -0.032495   0.360882  -0.036469   0.004170   0.000000
    34  H    0.000000   0.004534  -0.036394   0.359174  -0.032940   0.000001
    35  H    0.000000   0.004483  -0.036483   0.360213  -0.033231  -0.000002
    36  H    0.000000   0.000000  -0.000001  -0.000060  -0.000086  -0.070810
    37  H    0.000000   0.000000  -0.000005  -0.000041   0.002230  -0.000005
    38  H    0.000000   0.000000   0.000000   0.000000  -0.000007  -0.000144
    39  H    0.000000   0.000000   0.000000   0.000000   0.000000   0.000000
    40  H    0.000000   0.000000   0.000000   0.000000  -0.000002   0.000000
    41  H    0.000000   0.000000   0.000000   0.000000   0.000001   0.003876
    42  H    0.000000   0.000000   0.000000   0.000000   0.000000   0.043212
    43  H    0.000000   0.000000   0.000000   0.000000   0.000000   0.000667
              13         14         15         16         17         18
     1  C    0.000000   0.000000   0.000000   0.000000   0.000000   0.000000
     2  N    0.000000   0.000000   0.000000   0.000000   0.000000   0.000000
     3  C    0.000000   0.000000   0.000000   0.000000   0.000000   0.000000
     4  C    0.000000   0.000000   0.000000   0.000000   0.000000   0.000000
     5  C    0.000000   0.000000   0.000000   0.000000   0.000000   0.000000
     6  N    0.000000   0.000000   0.000000   0.000000   0.000000   0.000000
     7  Br   0.000000   0.000000   0.000000   0.000000   0.000000   0.000000
     8  O    0.000000   0.000004   0.000005   0.000000   0.000000   0.000000
     9  C   -0.000004   0.001259   0.002384   0.000122   0.000004  -0.000001
    10  C    0.000538  -0.009514  -0.025999   0.006298   0.000024  -0.000107
    11  O    0.002370  -0.075323   0.290362  -0.074772   0.001354   0.003412
    12  N    0.447113  -0.048643  -0.034528  -0.052225   0.427084  -0.000051
    13  C    4.736401   0.436655  -0.060846  -0.026802  -0.063141  -0.000007
    14  N    0.436655   6.937472   0.406545  -0.053088  -0.042234   0.000041
    15  C   -0.060846   0.406545   4.508464   0.452838  -0.013211  -0.006329
    16  C   -0.026802  -0.053088   0.452838   5.251334   0.435962  -0.045780
    17  C   -0.063141  -0.042234  -0.013211   0.435962   4.598984   0.003358
    18  C   -0.000007   0.000041  -0.006329  -0.045780   0.003358   4.961923
    19  C    0.000868   0.006184  -0.053163   0.295838  -0.059214   0.514092
    20  C   -0.000003  -0.000062   0.002782  -0.047537  -0.007931  -0.037842
    21  C    0.000000   0.000001  -0.000059   0.005982   0.000315  -0.045318
    22  C    0.000000   0.000000   0.000020   0.000873   0.000008  -0.032802
    23  C    0.000000   0.000001   0.000339   0.006104  -0.000068   0.501383
    24  N    0.004587   0.000092   0.004545  -0.076711   0.199574  -0.000051
    25  Br   0.000000   0.000000   0.000000   0.000001   0.000000   0.005519
    26  S   -0.000040   0.000124   0.000142   0.001886   0.006474   0.000008
    27  O   -0.000001   0.000000   0.000000  -0.000090   0.001180   0.000000
    28  O   -0.000085  -0.000002  -0.000003   0.000068   0.003586   0.000000
    29  N   -0.000034  -0.000013   0.000002  -0.000244  -0.005443   0.000000
    30  H    0.000000   0.000000   0.000000   0.000000   0.000000   0.000000
    31  H    0.000000   0.000000   0.000000   0.000000   0.000000   0.000000
    32  H    0.000000  -0.000012   0.000068  -0.000027   0.000000   0.000062
    33  H    0.000000  -0.000008   0.000121  -0.000053   0.000000   0.000031
    34  H   -0.000196   0.007839  -0.002346  -0.000020   0.000011   0.000013
    35  H   -0.000201   0.007921  -0.002784   0.000017   0.000019  -0.000020
    36  H    0.389813  -0.067400   0.003590   0.001109   0.004263   0.000000
    37  H    0.000001  -0.000121   0.001782  -0.007443   0.000053   0.352837
    38  H    0.000000  -0.000002   0.000189  -0.004606   0.000723   0.005557
    39  H    0.000000   0.000000   0.000000  -0.000198  -0.000003   0.000513
    40  H    0.000000   0.000000  -0.000007  -0.000187   0.000000  -0.038483
    41  H   -0.000100  -0.000003   0.000288  -0.008318  -0.011193   0.000322
    42  H    0.000077   0.000142   0.000005   0.000452   0.000466   0.000000
    43  H    0.000008   0.000000   0.000000   0.000006   0.000143   0.000000
              19         20         21         22         23         24
     1  C    0.000000   0.000000   0.000000   0.000000   0.000000   0.000000
     2  N    0.000000   0.000000   0.000000   0.000000   0.000000   0.000000
     3  C    0.000000   0.000000   0.000000   0.000000   0.000000   0.000000
     4  C    0.000000   0.000000   0.000000   0.000000   0.000000   0.000000
     5  C    0.000000   0.000000   0.000000   0.000000   0.000000   0.000000
     6  N    0.000000   0.000000   0.000000   0.000000   0.000000   0.000000
     7  Br   0.000000   0.000000   0.000000   0.000000   0.000000   0.000000
     8  O    0.000000   0.000000   0.000000   0.000000   0.000000   0.000000
     9  C   -0.000076  -0.000001   0.000000   0.000000   0.000000   0.000000
    10  C   -0.000231   0.000004   0.000000   0.000000   0.000005   0.000001
    11  O    0.000089  -0.000527  -0.000016   0.000010  -0.000159  -0.000032
    12  N    0.005153  -0.000037   0.000001   0.000000   0.000001  -0.088681
    13  C    0.000868  -0.000003   0.000000   0.000000   0.000000   0.004587
    14  N    0.006184  -0.000062   0.000001   0.000000   0.000001   0.000092
    15  C   -0.053163   0.002782  -0.000059   0.000020   0.000339   0.004545
    16  C    0.295838  -0.047537   0.005982   0.000873   0.006104  -0.076711
    17  C   -0.059214  -0.007931   0.000315   0.000008  -0.000068   0.199574
    18  C    0.514092  -0.037842  -0.045318  -0.032802   0.501383  -0.000051
    19  C    4.896387   0.498889  -0.026023  -0.025123  -0.020721  -0.014905
    20  C    0.498889   5.024833   0.497237  -0.033936  -0.047022  -0.001793
    21  C   -0.026023   0.497237   4.979293   0.517723  -0.031577  -0.000317
    22  C   -0.025123  -0.033936   0.517723   4.838419   0.509329   0.000017
    23  C   -0.020721  -0.047022  -0.031577   0.509329   4.985951   0.000000
    24  N   -0.014905  -0.001793  -0.000317   0.000017   0.000000   7.522763
    25  Br   0.000199   0.005648  -0.058506   0.236581  -0.057949   0.000000
    26  S   -0.000276   0.000096  -0.000002   0.000000  -0.000002   0.130115
    27  O   -0.000008  -0.000010   0.000000   0.000000   0.000000  -0.054550
    28  O    0.000015  -0.000025   0.000000   0.000000   0.000000  -0.058495
    29  N   -0.000008   0.000001   0.000000   0.000000   0.000000  -0.051469
    30  H    0.000000   0.000000   0.000000   0.000000   0.000000   0.000000
    31  H    0.000000   0.000000   0.000000   0.000000   0.000000   0.000000
    32  H    0.000012   0.000000   0.000000   0.000001  -0.000003   0.000000
    33  H    0.000009   0.000003   0.000000  -0.000001   0.000005   0.000000
    34  H   -0.000050   0.000003   0.000000   0.000000   0.000000   0.000000
    35  H    0.000054  -0.000001   0.000000   0.000000  -0.000001   0.000000
    36  H    0.000036   0.000000   0.000000   0.000000   0.000000  -0.000204
    37  H   -0.039988   0.006134   0.000468   0.004479  -0.044688  -0.000011
    38  H   -0.043065   0.355250  -0.042195   0.004210   0.000543   0.001246
    39  H    0.003819  -0.038746   0.353830  -0.045083   0.005198  -0.000001
    40  H    0.003845   0.000486   0.005259  -0.045738   0.354332   0.000000
    41  H    0.014597   0.011616   0.000228  -0.000094  -0.000164   0.287407
    42  H   -0.000013   0.000000   0.000000   0.000000   0.000000  -0.004480
    43  H    0.000000   0.000000   0.000000   0.000000   0.000000   0.003024
              25         26         27         28         29         30
     1  C    0.000000   0.000000   0.000000   0.000000   0.000000   0.005293
     2  N    0.000000   0.000000   0.000000   0.000000   0.000000  -0.054625
     3  C    0.000000   0.000000   0.000000   0.000000   0.000000   0.379343
     4  C    0.000000   0.000000   0.000000   0.000000   0.000000  -0.071687
     5  C    0.000000   0.000000   0.000000   0.000000   0.000000   0.004260
     6  N    0.000000   0.000000   0.000000   0.000000   0.000000  -0.000494
     7  Br   0.000000   0.000000   0.000000   0.000000   0.000000   0.001738
     8  O    0.000000   0.000000   0.000000   0.000000   0.000000  -0.000061
     9  C    0.000000   0.000000   0.000000   0.000000   0.000000   0.000003
    10  C    0.000000   0.000000   0.000000   0.000000   0.000000   0.000000
    11  O    0.000000   0.000000   0.000000   0.000000   0.000000   0.000000
    12  N    0.000000   0.004597  -0.000069  -0.003541  -0.018725   0.000000
    13  C    0.000000  -0.000040  -0.000001  -0.000085  -0.000034   0.000000
    14  N    0.000000   0.000124   0.000000  -0.000002  -0.000013   0.000000
    15  C    0.000000   0.000142   0.000000  -0.000003   0.000002   0.000000
    16  C    0.000001   0.001886  -0.000090   0.000068  -0.000244   0.000000
    17  C    0.000000   0.006474   0.001180   0.003586  -0.005443   0.000000
    18  C    0.005519   0.000008   0.000000   0.000000   0.000000   0.000000
    19  C    0.000199  -0.000276  -0.000008   0.000015  -0.000008   0.000000
    20  C    0.005648   0.000096  -0.000010  -0.000025   0.000001   0.000000
    21  C   -0.058506  -0.000002   0.000000   0.000000   0.000000   0.000000
    22  C    0.236581   0.000000   0.000000   0.000000   0.000000   0.000000
    23  C   -0.057949  -0.000002   0.000000   0.000000   0.000000   0.000000
    24  N    0.000000   0.130115  -0.054550  -0.058495  -0.051469   0.000000
    25  Br  35.070380   0.000000   0.000000   0.000000   0.000000   0.000000
    26  S    0.000000  13.516369   0.475114   0.458520   0.182223   0.000000
    27  O    0.000000   0.475114   8.210199  -0.046731  -0.057742   0.000000
    28  O    0.000000   0.458520  -0.046731   8.211354  -0.060314   0.000000
    29  N    0.000000   0.182223  -0.057742  -0.060314   7.273929   0.000000
    30  H    0.000000   0.000000   0.000000   0.000000   0.000000   0.613747
    31  H    0.000000   0.000000   0.000000   0.000000   0.000000  -0.000189
    32  H    0.000000   0.000000   0.000000   0.000000   0.000000   0.000000
    33  H    0.000000   0.000000   0.000000   0.000000   0.000000   0.000000
    34  H    0.000000   0.000000   0.000000   0.000000   0.000000   0.000000
    35  H    0.000000   0.000000   0.000000   0.000000   0.000000   0.000000
    36  H    0.000000  -0.000111   0.000000   0.000008   0.000059   0.000000
    37  H   -0.000156  -0.000001   0.000000   0.000000   0.000000   0.000000
    38  H   -0.000154   0.000398  -0.000019   0.000039   0.000001   0.000000
    39  H   -0.002927  -0.000001   0.000000   0.000000   0.000000   0.000000
    40  H   -0.002931   0.000000   0.000000   0.000000   0.000000   0.000000
    41  H    0.000001  -0.014522   0.005763   0.000302   0.001194   0.000000
    42  H    0.000000   0.002755   0.001535  -0.001102   0.251769   0.000000
    43  H    0.000000  -0.009358   0.000113  -0.000173   0.289957   0.000000
              31         32         33         34         35         36
     1  C    0.004488  -0.003692  -0.003716   0.000010  -0.000002   0.000000
     2  N   -0.000525  -0.000044  -0.000069  -0.000017  -0.000018   0.000000
     3  C    0.004677   0.000036   0.000036   0.000001   0.000001   0.000000
     4  C   -0.073209  -0.000025  -0.000022   0.000000   0.000000   0.000000
     5  C    0.379180  -0.000070  -0.000096   0.000000   0.000000   0.000000
     6  N   -0.055303   0.008049   0.008009   0.000000  -0.000001   0.000000
     7  Br   0.001396   0.000000   0.000000   0.000000   0.000000   0.000000
     8  O   -0.000087  -0.032954  -0.032495   0.004534   0.004483   0.000000
     9  C   -0.000047   0.359781   0.360882  -0.036394  -0.036483  -0.000001
    10  C   -0.000001  -0.036359  -0.036469   0.359174   0.360213  -0.000060
    11  O    0.000000   0.004032   0.004170  -0.032940  -0.033231  -0.000086
    12  N    0.000000   0.000000   0.000000   0.000001  -0.000002  -0.070810
    13  C    0.000000   0.000000   0.000000  -0.000196  -0.000201   0.389813
    14  N    0.000000  -0.000012  -0.000008   0.007839   0.007921  -0.067400
    15  C    0.000000   0.000068   0.000121  -0.002346  -0.002784   0.003590
    16  C    0.000000  -0.000027  -0.000053  -0.000020   0.000017   0.001109
    17  C    0.000000   0.000000   0.000000   0.000011   0.000019   0.004263
    18  C    0.000000   0.000062   0.000031   0.000013  -0.000020   0.000000
    19  C    0.000000   0.000012   0.000009  -0.000050   0.000054   0.000036
    20  C    0.000000   0.000000   0.000003   0.000003  -0.000001   0.000000
    21  C    0.000000   0.000000   0.000000   0.000000   0.000000   0.000000
    22  C    0.000000   0.000001  -0.000001   0.000000   0.000000   0.000000
    23  C    0.000000  -0.000003   0.000005   0.000000  -0.000001   0.000000
    24  N    0.000000   0.000000   0.000000   0.000000   0.000000  -0.000204
    25  Br   0.000000   0.000000   0.000000   0.000000   0.000000   0.000000
    26  S    0.000000   0.000000   0.000000   0.000000   0.000000  -0.000111
    27  O    0.000000   0.000000   0.000000   0.000000   0.000000   0.000000
    28  O    0.000000   0.000000   0.000000   0.000000   0.000000   0.000008
    29  N    0.000000   0.000000   0.000000   0.000000   0.000000   0.000059
    30  H   -0.000189   0.000000   0.000000   0.000000   0.000000   0.000000
    31  H    0.614028   0.000005   0.000004   0.000000   0.000000   0.000000
    32  H    0.000005   0.591170  -0.045730   0.005727  -0.007410   0.000000
    33  H    0.000004  -0.045730   0.585099  -0.007183   0.005707   0.000000
    34  H    0.000000   0.005727  -0.007183   0.588626  -0.046644   0.000010
    35  H    0.000000  -0.007410   0.005707  -0.046644   0.590276   0.000010
    36  H    0.000000   0.000000   0.000000   0.000010   0.000010   0.628384
    37  H    0.000000   0.000141  -0.000004   0.000010  -0.000019   0.000000
    38  H    0.000000   0.000000   0.000000   0.000000   0.000000   0.000000
    39  H    0.000000   0.000000   0.000000   0.000000   0.000000   0.000000
    40  H    0.000000   0.000000   0.000000   0.000000   0.000000   0.000000
    41  H    0.000000   0.000000   0.000000   0.000000   0.000000   0.000004
    42  H    0.000000   0.000000   0.000000   0.000000   0.000000  -0.000313
    43  H    0.000000   0.000000   0.000000   0.000000   0.000000  -0.000002
              37         38         39         40         41         42
     1  C    0.000000   0.000000   0.000000   0.000000   0.000000   0.000000
     2  N    0.000000   0.000000   0.000000   0.000000   0.000000   0.000000
     3  C    0.000000   0.000000   0.000000   0.000000   0.000000   0.000000
     4  C    0.000000   0.000000   0.000000   0.000000   0.000000   0.000000
     5  C    0.000000   0.000000   0.000000   0.000000   0.000000   0.000000
     6  N    0.000000   0.000000   0.000000   0.000000   0.000000   0.000000
     7  Br   0.000000   0.000000   0.000000   0.000000   0.000000   0.000000
     8  O    0.000000   0.000000   0.000000   0.000000   0.000000   0.000000
     9  C   -0.000005   0.000000   0.000000   0.000000   0.000000   0.000000
    10  C   -0.000041   0.000000   0.000000   0.000000   0.000000   0.000000
    11  O    0.002230  -0.000007   0.000000  -0.000002   0.000001   0.000000
    12  N   -0.000005  -0.000144   0.000000   0.000000   0.003876   0.043212
    13  C    0.000001   0.000000   0.000000   0.000000  -0.000100   0.000077
    14  N   -0.000121  -0.000002   0.000000   0.000000  -0.000003   0.000142
    15  C    0.001782   0.000189   0.000000  -0.000007   0.000288   0.000005
    16  C   -0.007443  -0.004606  -0.000198  -0.000187  -0.008318   0.000452
    17  C    0.000053   0.000723  -0.000003   0.000000  -0.011193   0.000466
    18  C    0.352837   0.005557   0.000513  -0.038483   0.000322   0.000000
    19  C   -0.039988  -0.043065   0.003819   0.003845   0.014597  -0.000013
    20  C    0.006134   0.355250  -0.038746   0.000486   0.011616   0.000000
    21  C    0.000468  -0.042195   0.353830   0.005259   0.000228   0.000000
    22  C    0.004479   0.004210  -0.045083  -0.045738  -0.000094   0.000000
    23  C   -0.044688   0.000543   0.005198   0.354332  -0.000164   0.000000
    24  N   -0.000011   0.001246  -0.000001   0.000000   0.287407  -0.004480
    25  Br  -0.000156  -0.000154  -0.002927  -0.002931   0.000001   0.000000
    26  S   -0.000001   0.000398  -0.000001   0.000000  -0.014522   0.002755
    27  O    0.000000  -0.000019   0.000000   0.000000   0.005763   0.001535
    28  O    0.000000   0.000039   0.000000   0.000000   0.000302  -0.001102
    29  N    0.000000   0.000001   0.000000   0.000000   0.001194   0.251769
    30  H    0.000000   0.000000   0.000000   0.000000   0.000000   0.000000
    31  H    0.000000   0.000000   0.000000   0.000000   0.000000   0.000000
    32  H    0.000141   0.000000   0.000000   0.000000   0.000000   0.000000
    33  H   -0.000004   0.000000   0.000000   0.000000   0.000000   0.000000
    34  H    0.000010   0.000000   0.000000   0.000000   0.000000   0.000000
    35  H   -0.000019   0.000000   0.000000   0.000000   0.000000   0.000000
    36  H    0.000000   0.000000   0.000000   0.000000   0.000004  -0.000313
    37  H    0.607070  -0.000187   0.000018  -0.006161   0.000003   0.000000
    38  H   -0.000187   0.594514  -0.005887   0.000018  -0.000212   0.000000
    39  H    0.000018  -0.005887   0.599488  -0.000172   0.000002   0.000000
    40  H   -0.006161   0.000018  -0.000172   0.599681  -0.000001   0.000000
    41  H    0.000003  -0.000212   0.000002  -0.000001   0.335795  -0.000063
    42  H    0.000000   0.000000   0.000000   0.000000  -0.000063   0.353578
    43  H    0.000000   0.000000   0.000000   0.000000  -0.000034  -0.015992
              43
     1  C    0.000000
     2  N    0.000000
     3  C    0.000000
     4  C    0.000000
     5  C    0.000000
     6  N    0.000000
     7  Br   0.000000
     8  O    0.000000
     9  C    0.000000
    10  C    0.000000
    11  O    0.000000
    12  N    0.000667
    13  C    0.000008
    14  N    0.000000
    15  C    0.000000
    16  C    0.000006
    17  C    0.000143
    18  C    0.000000
    19  C    0.000000
    20  C    0.000000
    21  C    0.000000
    22  C    0.000000
    23  C    0.000000
    24  N    0.003024
    25  Br   0.000000
    26  S   -0.009358
    27  O    0.000113
    28  O   -0.000173
    29  N    0.289957
    30  H    0.000000
    31  H    0.000000
    32  H    0.000000
    33  H    0.000000
    34  H    0.000000
    35  H    0.000000
    36  H   -0.000002
    37  H    0.000000
    38  H    0.000000
    39  H    0.000000
    40  H    0.000000
    41  H   -0.000034
    42  H   -0.015992
    43  H    0.395766
          Atomic-Atomic Spin Densities.
               1          2          3          4          5          6
     1  C   -0.021149  -0.002598  -0.000442   0.000700  -0.001346   0.000693
     2  N   -0.002598   0.167926  -0.068635  -0.000261   0.005994  -0.005968
     3  C   -0.000442  -0.068635   0.249298   0.005301  -0.017606   0.005571
     4  C    0.000700  -0.000261   0.005301  -0.074240  -0.004882   0.000783
     5  C   -0.001346   0.005994  -0.017606  -0.004882   0.278493  -0.067461
     6  N    0.000693  -0.005968   0.005571   0.000783  -0.067461   0.146546
     7  Br  -0.000003   0.000016  -0.000748   0.004755  -0.000436   0.000013
     8  O    0.003582  -0.000345   0.000099  -0.000020   0.000076  -0.000065
     9  C    0.000098   0.000021  -0.000007  -0.000002   0.000039  -0.000659
    10  C   -0.000040   0.000010   0.000000   0.000000   0.000001  -0.000054
    11  O    0.000000   0.000000   0.000000   0.000000   0.000000   0.000000
    12  N    0.000000   0.000000   0.000000   0.000000   0.000000   0.000000
    13  C    0.000000   0.000000   0.000000   0.000000   0.000000   0.000000
    14  N    0.000000   0.000000   0.000000   0.000000   0.000000   0.000000
    15  C    0.000000   0.000000   0.000000   0.000000   0.000000   0.000000
    16  C    0.000000   0.000000   0.000000   0.000000   0.000000   0.000000
    17  C    0.000000   0.000000   0.000000   0.000000   0.000000   0.000000
    18  C    0.000000   0.000000   0.000000   0.000000   0.000000   0.000000
    19  C    0.000000   0.000000   0.000000   0.000000   0.000000   0.000000
    20  C    0.000000   0.000000   0.000000   0.000000   0.000000   0.000000
    21  C    0.000000   0.000000   0.000000   0.000000   0.000000   0.000000
    22  C    0.000000   0.000000   0.000000   0.000000   0.000000   0.000000
    23  C    0.000000   0.000000   0.000000   0.000000   0.000000   0.000000
    24  N    0.000000   0.000000   0.000000   0.000000   0.000000   0.000000
    25  Br   0.000000   0.000000   0.000000   0.000000   0.000000   0.000000
    26  S    0.000000   0.000000   0.000000   0.000000   0.000000   0.000000
    27  O    0.000000   0.000000   0.000000   0.000000   0.000000   0.000000
    28  O    0.000000   0.000000   0.000000   0.000000   0.000000   0.000000
    29  N    0.000000   0.000000   0.000000   0.000000   0.000000   0.000000
    30  H   -0.000055  -0.000111   0.000693   0.000096   0.000035  -0.000005
    31  H   -0.000055  -0.000007   0.000017   0.000130   0.000719  -0.000109
    32  H   -0.000099  -0.000017   0.000002   0.000001  -0.000049   0.000295
    33  H   -0.000062  -0.000026   0.000004   0.000001  -0.000067   0.000467
    34  H    0.000009  -0.000007   0.000000   0.000000   0.000000   0.000010
    35  H    0.000002  -0.000006   0.000000   0.000000   0.000000   0.000008
    36  H    0.000000   0.000000   0.000000   0.000000   0.000000   0.000000
    37  H    0.000000   0.000000   0.000000   0.000000   0.000000   0.000000
    38  H    0.000000   0.000000   0.000000   0.000000   0.000000   0.000000
    39  H    0.000000   0.000000   0.000000   0.000000   0.000000   0.000000
    40  H    0.000000   0.000000   0.000000   0.000000   0.000000   0.000000
    41  H    0.000000   0.000000   0.000000   0.000000   0.000000   0.000000
    42  H    0.000000   0.000000   0.000000   0.000000   0.000000   0.000000
    43  H    0.000000   0.000000   0.000000   0.000000   0.000000   0.000000
               7          8          9         10         11         12
[...]
   251. RY*(   4) N  12                  0.00014     2.02937   
   252. RY*(   5) N  12                  0.00012     1.87871   
   253. RY*(   6) N  12                  0.00008     2.42204   
   254. RY*(   7) N  12                  0.00004     2.33547   
   255. RY*(   8) N  12                  0.00001     3.76857   
   256. RY*(   9) N  12                  0.00002     1.88067   
   257. RY*(  10) N  12                  0.00002     2.29336   
   258. RY*(   1) C  13                  0.00654     0.67853   
   259. RY*(   2) C  13                  0.00270     1.44845   
   260. RY*(   3) C  13                  0.00098     2.30879   
   261. RY*(   4) C  13                  0.00035     0.86989   
   262. RY*(   5) C  13                  0.00032     2.53279   
   263. RY*(   6) C  13                  0.00027     2.55821   
   264. RY*(   7) C  13                  0.00009     1.86777   
   265. RY*(   8) C  13                  0.00000     1.88499   
   266. RY*(   9) C  13                  0.00000     3.01218   
   267. RY*(  10) C  13                  0.00000     2.52071   
   268. RY*(   1) N  14                  0.00170     1.06288   
   269. RY*(   2) N  14                  0.00096     1.36224   
   270. RY*(   3) N  14                  0.00030     0.97450   
   271. RY*(   4) N  14                  0.00022     2.10995   
   272. RY*(   5) N  14                  0.00011     1.87612   
   273. RY*(   6) N  14                  0.00008     2.35523   
   274. RY*(   7) N  14                  0.00005     2.23863   
   275. RY*(   8) N  14                  0.00002     1.87724   
   276. RY*(   9) N  14                  0.00001     4.00203   
   277. RY*(  10) N  14                  0.00001     2.20067   
   278. RY*(   1) C  15                  0.00437     1.07659   
   279. RY*(   2) C  15                  0.00265     1.06377   
   280. RY*(   3) C  15                  0.00144     1.92649   
   281. RY*(   4) C  15                  0.00139     2.00104   
   282. RY*(   5) C  15                  0.00075     2.02852   
   283. RY*(   6) C  15                  0.00054     2.47832   
   284. RY*(   7) C  15                  0.00022     1.02317   
   285. RY*(   8) C  15                  0.00014     2.04153   
   286. RY*(   9) C  15                  0.00007     3.83157   
   287. RY*(  10) C  15                  0.00001     2.46230   
   288. RY*(   1) C  16                  0.00262     1.04694   
   289. RY*(   2) C  16                  0.00170     1.50265   
   290. RY*(   3) C  16                  0.00126     1.03582   
   291. RY*(   4) C  16                  0.00049     1.25415   
   292. RY*(   5) C  16                  0.00023     2.45009   
   293. RY*(   6) C  16                  0.00014     2.03877   
   294. RY*(   7) C  16                  0.00006     2.78834   
   295. RY*(   8) C  16                  0.00004     2.41104   
   296. RY*(   9) C  16                  0.00002     3.84604   
   297. RY*(  10) C  16                  0.00002     2.48269   
   298. RY*(   1) C  17                  0.00503     0.99742   
   299. RY*(   2) C  17                  0.00253     1.25224   
   300. RY*(   3) C  17                  0.00128     1.50507   
   301. RY*(   4) C  17                  0.00109     1.68603   
   302. RY*(   5) C  17                  0.00071     2.17173   
   303. RY*(   6) C  17                  0.00025     1.29427   
   304. RY*(   7) C  17                  0.00017     2.04461   
   305. RY*(   8) C  17                  0.00012     2.74586   
   306. RY*(   9) C  17                  0.00006     3.82941   
   307. RY*(  10) C  17                  0.00001     2.45820   
   308. RY*(   1) C  18                  0.00240     1.36612   
   309. RY*(   2) C  18                  0.00128     0.85772   
   310. RY*(   3) C  18                  0.00033     1.81639   
   311. RY*(   4) C  18                  0.00029     1.06391   
   312. RY*(   5) C  18                  0.00016     1.23573   
   313. RY*(   6) C  18                  0.00005     2.40429   
   314. RY*(   7) C  18                  0.00001     2.42511   
   315. RY*(   8) C  18                  0.00002     2.31989   
   316. RY*(   9) C  18                  0.00002     4.24699   
   317. RY*(  10) C  18                  0.00001     1.88312   
   318. RY*(   1) C  19                  0.00271     1.42897   
   319. RY*(   2) C  19                  0.00217     1.04761   
   320. RY*(   3) C  19                  0.00117     1.00525   
   321. RY*(   4) C  19                  0.00042     1.22667   
   322. RY*(   5) C  19                  0.00029     2.03177   
   323. RY*(   6) C  19                  0.00022     2.35253   
   324. RY*(   7) C  19                  0.00007     2.29932   
   325. RY*(   8) C  19                  0.00003     4.17621   
   326. RY*(   9) C  19                  0.00003     2.47808   
   327. RY*(  10) C  19                  0.00001     2.65333   
   328. RY*(   1) C  20                  0.00234     1.36524   
   329. RY*(   2) C  20                  0.00122     0.85660   
   330. RY*(   3) C  20                  0.00037     1.80935   
   331. RY*(   4) C  20                  0.00023     1.03501   
   332. RY*(   5) C  20                  0.00015     1.32183   
   333. RY*(   6) C  20                  0.00005     2.39080   
   334. RY*(   7) C  20                  0.00001     2.39626   
   335. RY*(   8) C  20                  0.00002     2.32176   
   336. RY*(   9) C  20                  0.00002     4.26435   
   337. RY*(  10) C  20                  0.00001     1.88748   
   338. RY*(   1) C  21                  0.00253     1.26189   
   339. RY*(   2) C  21                  0.00164     0.82118   
   340. RY*(   3) C  21                  0.00035     1.36023   
   341. RY*(   4) C  21                  0.00025     1.31129   
   342. RY*(   5) C  21                  0.00022     1.30609   
   343. RY*(   6) C  21                  0.00005     2.44284   
   344. RY*(   7) C  21                  0.00001     2.15808   
   345. RY*(   8) C  21                  0.00002     4.24221   
   346. RY*(   9) C  21                  0.00001     2.37902   
   347. RY*(  10) C  21                  0.00001     2.02915   
   348. RY*(   1) C  22                  0.00329     0.86126   
   349. RY*(   2) C  22                  0.00320     1.22162   
   350. RY*(   3) C  22                  0.00085     1.22614   
   351. RY*(   4) C  22                  0.00038     2.01421   
   352. RY*(   5) C  22                  0.00022     2.48098   
   353. RY*(   6) C  22                  0.00022     1.17845   
   354. RY*(   7) C  22                  0.00009     2.12554   
   355. RY*(   8) C  22                  0.00002     3.26077   
   356. RY*(   9) C  22                  0.00002     1.42284   
   357. RY*(  10) C  22                  0.00000     3.38278   
   358. RY*(   1) C  23                  0.00251     1.25605   
   359. RY*(   2) C  23                  0.00158     0.83575   
   360. RY*(   3) C  23                  0.00042     1.33011   
   361. RY*(   4) C  23                  0.00023     1.19699   
   362. RY*(   5) C  23                  0.00018     1.44811   
   363. RY*(   6) C  23                  0.00005     2.45511   
   364. RY*(   7) C  23                  0.00001     2.14318   
   365. RY*(   8) C  23                  0.00002     4.21508   
   366. RY*(   9) C  23                  0.00001     2.38804   
   367. RY*(  10) C  23                  0.00001     2.06297   
   368. RY*(   1) N  24                  0.00225     1.33483   
   369. RY*(   2) N  24                  0.00177     1.19726   
   370. RY*(   3) N  24                  0.00105     1.09934   
   371. RY*(   4) N  24                  0.00066     1.60196   
   372. RY*(   5) N  24                  0.00012     1.97992   
   373. RY*(   6) N  24                  0.00012     2.46193   
   374. RY*(   7) N  24                  0.00005     2.24002   
   375. RY*(   8) N  24                  0.00004     2.07450   
   376. RY*(   9) N  24                  0.00001     3.82200   
   377. RY*(  10) N  24                  0.00002     2.30353   
   378. RY*(   1)Br  25                  0.00145     0.62732   
   379. RY*(   2)Br  25                  0.00068     0.79157   
   380. RY*(   3)Br  25                  0.00029     0.59921   
   381. RY*(   4)Br  25                  0.00004     0.70837   
   382. RY*(   5)Br  25                  0.00004     0.67029   
   383. RY*(   6)Br  25                  0.00001     0.69360   
   384. RY*(   7)Br  25                  0.00001     0.75798   
   385. RY*(   8)Br  25                  0.00000     1.63615   
   386. RY*(   9)Br  25                  0.00001     1.20700   
   387. RY*(  10)Br  25                  0.00000    47.39467   
   388. RY*(  11)Br  25                  0.00000    33.58473   
   389. RY*(  12)Br  25                  0.00001     0.69794   
   390. RY*(   1) S  26                  0.03648     0.87869   
   391. RY*(   2) S  26                  0.03430     0.80341   
   392. RY*(   3) S  26                  0.02413     0.96091   
   393. RY*(   4) S  26                  0.01611     0.92986   
   394. RY*(   5) S  26                  0.00608     0.90596   
   395. RY*(   6) S  26                  0.00460     0.69464   
   396. RY*(   7) S  26                  0.00245     0.69873   
   397. RY*(   8) S  26                  0.00064     0.81883   
   398. RY*(   9) S  26                  0.00036     0.66494   
   399. RY*(  10) S  26                  0.00005     3.71122   
   400. RY*(   1) O  27                  0.00060     1.70650   
   401. RY*(   2) O  27                  0.00047     1.41464   
   402. RY*(   3) O  27                  0.00021     1.22967   
   403. RY*(   4) O  27                  0.00009     1.46645   
   404. RY*(   5) O  27                  0.00003     1.94424   
   405. RY*(   6) O  27                  0.00001     2.15976   
   406. RY*(   7) O  27                  0.00001     3.65737   
   407. RY*(   8) O  27                  0.00002     2.02140   
   408. RY*(   9) O  27                  0.00000     2.02490   
   409. RY*(  10) O  27                  0.00001     1.91341   
   410. RY*(   1) O  28                  0.00075     2.16094   
   411. RY*(   2) O  28                  0.00036     1.21671   
   412. RY*(   3) O  28                  0.00021     1.37077   
   413. RY*(   4) O  28                  0.00008     1.50549   
   414. RY*(   5) O  28                  0.00003     1.98699   
   415. RY*(   6) O  28                  0.00002     1.94478   
   416. RY*(   7) O  28                  0.00001     1.96223   
   417. RY*(   8) O  28                  0.00002     2.06919   
   418. RY*(   9) O  28                  0.00001     3.55519   
   419. RY*(  10) O  28                  0.00002     1.98335   
   420. RY*(   1) N  29                  0.00113     1.25804   
   421. RY*(   2) N  29                  0.00081     0.98592   
   422. RY*(   3) N  29                  0.00040     1.08160   
   423. RY*(   4) N  29                  0.00016     1.15176   
   424. RY*(   5) N  29                  0.00008     2.06109   
   425. RY*(   6) N  29                  0.00004     1.97049   
   426. RY*(   7) N  29                  0.00001     2.08284   
   427. RY*(   8) N  29                  0.00002     2.32266   
   428. RY*(   9) N  29                  0.00000     2.09564   
   429. RY*(  10) N  29                  0.00000     3.50078   
   430. RY*(   1) H  30                  0.00071     0.65854   
   431. RY*(   1) H  31                  0.00073     0.65847   
   432. RY*(   1) H  32                  0.00123     0.73549   
   433. RY*(   1) H  33                  0.00121     0.73416   
   434. RY*(   1) H  34                  0.00118     0.73061   
   435. RY*(   1) H  35                  0.00118     0.73087   
   436. RY*(   1) H  36                  0.00060     0.65542   
   437. RY*(   1) H  37                  0.00053     0.66098   
   438. RY*(   1) H  38                  0.00048     0.66407   
   439. RY*(   1) H  39                  0.00058     0.64553   
   440. RY*(   1) H  40                  0.00057     0.64721   
   441. RY*(   1) H  41                  0.00111     0.76801   
   442. RY*(   1) H  42                  0.00138     0.74421   
   443. RY*(   1) H  43                  0.00047     0.65552   
   444. BD*(   1) C   1 - N   2          0.02017     0.62699   
   445. BD*(   1) C   1 - N   6          0.02206     0.62837   
   446. BD*(   2) C   1 - N   6          0.21317     0.10534  453(v),449(v),142(g),139(g)
                                                    189(g),190(g),149(v)
   447. BD*(   1) C   1 - O   8          0.02935     0.50211   
   448. BD*(   1) N   2 - C   3          0.00601     0.65682   
   449. BD*(   2) N   2 - C   3          0.15707     0.12469  453(v),446(v),160(g),149(g)
                                                    150(g)
   450. BD*(   1) C   3 - C   4          0.01829     0.65338   
   451. BD*(   1) C   3 - H  30          0.01189     0.56176   
   452. BD*(   1) C   4 - C   5          0.01730     0.66330   
   453. BD*(   2) C   4 - C   5          0.16911     0.11912  449(v),446(v),180(g),168(g)
                                                    189(v)
   454. BD*(   1) C   4 -Br   7          0.02018     0.18359   
   455. BD*(   1) C   5 - N   6          0.00676     0.64720   
   456. BD*(   1) C   5 - H  31          0.01146     0.56268   
   457. BD*(   1) O   8 - C   9          0.01007     0.36837   
   458. BD*(   1) C   9 - C  10          0.00882     0.48685   
   459. BD*(   1) C   9 - H  32          0.01101     0.54171   
   460. BD*(   1) C   9 - H  33          0.01095     0.54394   
   461. BD*(   1) C  10 - O  11          0.01091     0.36235   
   462. BD*(   1) C  10 - H  34          0.01062     0.54137   
   463. BD*(   1) C  10 - H  35          0.01061     0.54036   
   464. BD*(   1) O  11 - C  15          0.02305     0.49714   
   465. BD*(   1) N  12 - C  13          0.01401     0.65007   
   466. BD*(   2) N  12 - C  13          0.17499     0.11177  471(v),474(v),261(g),250(g)
                                                    260(g),252(g)
   467. BD*(   1) N  12 - C  17          0.01128     0.60962   
   468. BD*(   1) C  13 - N  14          0.01348     0.64581   
   469. BD*(   1) C  13 - H  36          0.01363     0.56216   
   470. BD*(   1) N  14 - C  15          0.01379     0.62801   
   471. BD*(   2) N  14 - C  15          0.22863     0.09947  466(v),474(v),270(g),281(g)
                                                    280(g),282(g)
   472. BD*(   1) C  15 - C  16          0.02037     0.64066   
   473. BD*(   1) C  16 - C  17          0.01952     0.64960   
   474. BD*(   2) C  16 - C  17          0.18005     0.12403  466(v),471(v),478(v),303(g)
                                                    491(v),481(v),477(v),250(v)
   475. BD*(   1) C  16 - C  19          0.01476     0.57210   
   476. BD*(   1) C  17 - N  24          0.02050     0.53304   
   477. BD*(   1) C  18 - C  19          0.01214     0.66800   
   478. BD*(   2) C  18 - C  19          0.17089     0.13579  483(v),488(v),474(v),472(v)
                                                    473(v),310(g),311(g),331(v)
   479. BD*(   1) C  18 - C  23          0.00805     0.67723   
   480. BD*(   1) C  18 - H  37          0.00590     0.56371   
   481. BD*(   1) C  19 - C  20          0.01212     0.66463   
   482. BD*(   1) C  20 - C  21          0.00817     0.67230   
   483. BD*(   2) C  20 - C  21          0.16876     0.12336  488(v),478(v),341(g),330(g)
                                                    342(g),331(g)
   484. BD*(   1) C  20 - H  38          0.00597     0.56130   
   485. BD*(   1) C  21 - C  22          0.01224     0.66282   
   486. BD*(   1) C  21 - H  39          0.00634     0.55584   
   487. BD*(   1) C  22 - C  23          0.01228     0.66122   
   488. BD*(   2) C  22 - C  23          0.19437     0.11453  483(v),478(v),360(g),350(g)
                                                    378(v),311(v),340(v)
   489. BD*(   1) C  22 -Br  25          0.01767     0.18079   
   490. BD*(   1) C  23 - H  40          0.00634     0.55710   
   491. BD*(   1) N  24 - S  26          0.12983     0.20673  391(g),476(g),494(g),495(g)
                                                    370(g),467(v),398(g),492(g)
                                                    474(v),397(g),473(v),396(g)
   492. BD*(   1) N  24 - H  41          0.00778     0.52225   
   493. BD*(   1) S  26 - O  27          0.07042     0.36531   
   494. BD*(   1) S  26 - O  28          0.08920     0.36605   
   495. BD*(   1) S  26 - N  29          0.11755     0.21501  390(g),391(g),494(g),420(g)
                                                    491(g),493(g),397(g),396(g)
                                                    423(g)
   496. BD*(   1) N  29 - H  42          0.01180     0.51360   
   497. BD*(   1) N  29 - H  43          0.00414     0.49369   
       -------------------------------
              Total Lewis  132.10204  ( 97.8534%)
        Valence non-Lewis    2.59584  (  1.9228%)
        Rydberg non-Lewis    0.30212  (  0.2238%)
       -------------------------------
            Total unit  1  135.00000  (100.0000%)
           Charge unit  1    0.00000
 1|1|UNPC-DESKTOP-V94OHBB|SP|UB3LYP|6-31G(d)|C16H14Br2N6O4S1(1-,2)|DREA
 M|31-Aug-2024|0||# b3lyp/6-31g(d) pop=nbo||Title Card Required||-1,2|C
 ,0,0.49668876,-1.1258278,0.|N,0,-0.52017292,-1.99928282,0.01379115|C,0
 ,-1.74359193,-1.47367575,0.02209285|C,0,-1.94891201,-0.09249434,0.0163
 9128|C,0,-0.82343604,0.72250375,0.00266381|N,0,0.41074989,0.20652937,-
 0.00574408|Br,0,-3.70252562,0.64345853,0.02661743|O,0,1.70624164,-1.70
 335284,-0.01010387|C,0,2.86172169,-0.8463164,-0.04048316|C,0,4.0580801
 4,-1.78411798,-0.05819794|O,0,5.21073374,-0.92044243,-0.08623169|N,0,8
 .88975616,-2.63118211,-0.16705398|C,0,7.75465778,-3.32017031,-0.135447
 64|N,0,6.52028038,-2.81861609,-0.11489928|C,0,6.4262918,-1.48562808,-0
 .1163877|C,0,7.54038094,-0.62177904,-0.127592|C,0,8.7771481,-1.2891727
 9,-0.15946166|C,0,6.73603183,1.53129826,-1.14421784|C,0,7.40614578,0.8
 6031258,-0.10848671|C,0,7.94622926,1.61698622,0.94432707|C,0,7.8247821
 6,3.00711092,0.96605631|C,0,7.15268935,3.64180276,-0.07514833|C,0,6.60
 433959,2.91862018,-1.13312528|N,0,9.96651772,-0.5809819,-0.2402781|Br,
 0,6.97651936,5.55105891,-0.05314595|S,0,11.49535475,-1.18912041,0.1514
 4667|O,0,12.40873357,-0.07282036,-0.08254322|O,0,11.46271155,-1.817616
 13,1.47357746|N,0,11.70078284,-2.30547345,-1.08412126|H,0,-2.58048353,
 -2.1683522,0.03307532|H,0,-0.90512825,1.80665131,-0.00182569|H,0,2.840
 1752,-0.21706787,-0.93517244|H,0,2.87834634,-0.20181469,0.8432806|H,0,
 4.08199496,-2.41402397,0.83556732|H,0,4.04555497,-2.42571307,-0.943653
 8|H,0,7.84296066,-4.40358851,-0.13342532|H,0,6.31419596,0.96741299,-1.
 97031752|H,0,8.4584581,1.12028855,1.76344659|H,0,8.24386386,3.57796282
 ,1.78768938|H,0,6.08474603,3.4238424,-1.94019826|H,0,9.94829545,0.4309
 7415,-0.32769101|H,0,10.97231659,-3.02105599,-0.97879436|H,0,12.623684
 52,-2.73777717,-0.98501178||Version=IA32W-G09RevD.01|State=2-A|HF=-678
 9.0780662|S2=0.756384|S2-1=0.|S2A=0.750035|RMSD=8.643e-009|Dipole=0.53
 81195,0.5267244,-0.6800884|Quadrupole=-62.3651499,20.2324417,42.132708
 2,-13.257043,-5.9519622,4.2877202|PG=C01 [X(C16H14Br2N6O4S1)]||@


 COMMON SENSE IS NOT SO COMMON.   -- VOLTAIRE
 Job cpu time:       0 days  0 hours 22 minutes 34.0 seconds.
 File lengths (MBytes):  RWF=    234 Int=      0 D2E=      0 Chk=     12 Scr=      1
 Normal termination of Gaussian 09 at Sat Aug 31 03:10:31 2024.

