 Entering Link 1 = C:|G09W|l1.exe PID=     13196.
  
 Copyright (c) 1988,1990,1992,1993,1995,1998,2003,2009,2013,
            Gaussian, Inc.  All Rights Reserved.
  
 This is part of the Gaussian(R) 09 program.  It is based on
 the Gaussian(R) 03 system (copyright 2003, Gaussian, Inc.),
 the Gaussian(R) 98 system (copyright 1998, Gaussian, Inc.),
 the Gaussian(R) 94 system (copyright 1995, Gaussian, Inc.),
 the Gaussian 92(TM) system (copyright 1992, Gaussian, Inc.),
 the Gaussian 90(TM) system (copyright 1990, Gaussian, Inc.),
 the Gaussian 88(TM) system (copyright 1988, Gaussian, Inc.),
 the Gaussian 86(TM) system (copyright 1986, Carnegie Mellon
 University), and the Gaussian 82(TM) system (copyright 1983,
 Carnegie Mellon University). Gaussian is a federally registered
 trademark of Gaussian, Inc.
  
 This software contains proprietary and confidential information,
 including trade secrets, belonging to Gaussian, Inc.
  
 This software is provided under written license and may be
 used, copied, transmitted, or stored only in accord with that
 written license.
  
 The following legend is applicable only to US Government
 contracts under FAR:
  
                    RESTRICTED RIGHTS LEGEND
  
 Use, reproduction and disclosure by the US Government is
 subject to restrictions as set forth in subparagraphs (a)
 and (c) of the Commercial Computer Software - Restricted
 Rights clause in FAR 52.227-19.
  
 Gaussian, Inc.
 340 Quinnipiac St., Bldg. 40, Wallingford CT 06492
  
  
 ---------------------------------------------------------------
 Warning -- This program may not be used in any manner that
 competes with the business of Gaussian, Inc. or will provide
 assistance to any competitor of Gaussian, Inc.  The licensee
 of this program is prohibited from giving any competitor of
 Gaussian, Inc. access to this program.  By using this program,
 the user acknowledges that Gaussian, Inc. is engaged in the
 business of creating and licensing software in the field of
 computational chemistry and represents and warrants to the
 licensee that it is not a competitor of Gaussian, Inc. and that
 it will not use this program in any manner prohibited above.
 ---------------------------------------------------------------
  

 Cite this work as:
 Gaussian 09, Revision D.01,
 M. J. Frisch, G. W. Trucks, H. B. Schlegel, G. E. Scuseria, 
 M. A. Robb, J. R. Cheeseman, G. Scalmani, V. Barone, B. Mennucci, 
 G. A. Petersson, H. Nakatsuji, M. Caricato, X. Li, H. P. Hratchian, 
 A. F. Izmaylov, J. Bloino, G. Zheng, J. L. Sonnenberg, M. Hada, 
 M. Ehara, K. Toyota, R. Fukuda, J. Hasegawa, M. Ishida, T. Nakajima, 
 Y. Honda, O. Kitao, H. Nakai, T. Vreven, J. A. Montgomery, Jr., 
 J. E. Peralta, F. Ogliaro, M. Bearpark, J. J. Heyd, E. Brothers, 
 K. N. Kudin, V. N. Staroverov, T. Keith, R. Kobayashi, J. Normand, 
 K. Raghavachari, A. Rendell, J. C. Burant, S. S. Iyengar, J. Tomasi, 
 M. Cossi, N. Rega, J. M. Millam, M. Klene, J. E. Knox, J. B. Cross, 
 V. Bakken, C. Adamo, J. Jaramillo, R. Gomperts, R. E. Stratmann, 
 O. Yazyev, A. J. Austin, R. Cammi, C. Pomelli, J. W. Ochterski, 
 R. L. Martin, K. Morokuma, V. G. Zakrzewski, G. A. Voth, 
 P. Salvador, J. J. Dannenberg, S. Dapprich, A. D. Daniels, 
 O. Farkas, J. B. Foresman, J. V. Ortiz, J. Cioslowski, 
 and D. J. Fox, Gaussian, Inc., Wallingford CT, 2013.
 
 ******************************************
 Gaussian 09:  IA32W-G09RevD.01 24-Apr-2013
                08-Aug-2024 
 ******************************************
 %rwf=K drug NBO.rwf
 %nprocshared=4
 Will use up to    4 processors via shared memory.
 %mem=150MW
 %chk=C:|G09W|Scratch|K drug NBO.chk
 -----------------------------------------------------------
 # b3lyp/6-31g(d) scrf=(smd,solvent=dmso) pop=(nbo,savenbos)
 -----------------------------------------------------------
 1/38=1/1;
 2/12=2,17=6,18=5,40=1/2;
 3/5=1,6=6,7=1,11=2,16=1,25=1,30=1,70=32201,72=21,74=-5/1,2,3;
 4//1;
 5/5=2,38=5,53=21/2;
 6/7=2,8=2,9=2,10=2,28=1,40=1,73=1/1,7;
 99/5=1,9=1/99;
 -------------------
 Title Card Required
 -------------------
 Symbolic Z-matrix:
 Charge =  0 Multiplicity = 1
 C                    -4.49169  -1.48901   0.03397 
 N                    -5.50855  -2.36247   0.04776 
 C                    -6.73197  -1.83686   0.05606 
 C                    -6.93729  -0.45568   0.05036 
 C                    -5.81182   0.35932   0.03663 
 N                    -4.57763  -0.15665   0.02822 
 Br                   -8.69091   0.28027   0.06058 
 O                    -3.28214  -2.06654   0.02386 
 C                    -2.12666  -1.2095   -0.00652 
 C                    -0.9303   -2.1473   -0.02423 
 O                     0.22235  -1.28363  -0.05226 
 N                     3.90138  -2.99437  -0.13309 
 C                     2.76628  -3.68335  -0.10148 
 N                     1.5319   -3.1818   -0.08093 
 C                     1.43791  -1.84881  -0.08242 
 C                     2.552    -0.98496  -0.09363 
 C                     3.78877  -1.65236  -0.12549 
 C                     1.74765   1.16811  -1.11025 
 C                     2.41777   0.49713  -0.07452 
 C                     2.95785   1.2538    0.97829 
 C                     2.8364    2.64393   1.00002 
 C                     2.16431   3.27862  -0.04118 
 C                     1.61596   2.55544  -1.09916 
 N                     4.97814  -0.94417  -0.20631 
 Br                    1.98814   5.18787  -0.01918 
 S                     6.50697  -1.5523    0.18541 
 O                     7.42035  -0.436    -0.04858 
 O                     6.47433  -2.1808    1.50754 
 N                     6.7124   -2.66866  -1.05015 
 H                    -7.56886  -2.53154   0.06704 
 H                    -5.89351   1.44347   0.03214 
 H                    -2.14821  -0.58025  -0.90121 
 H                    -2.11003  -0.565     0.87725 
 H                    -0.90639  -2.77721   0.86953 
 H                    -0.94283  -2.7889   -0.90969 
 H                     2.85458  -4.76677  -0.09946 
 H                     1.32582   0.60423  -1.93635 
 H                     3.47008   0.7571    1.79741 
 H                     3.25548   3.21478   1.82166 
 H                     1.09637   3.06066  -1.90623 
 H                     4.95992   0.06779  -0.29372 
 H                     5.98394  -3.38424  -0.94483 
 H                     7.6353   -3.10096  -0.95104 
 
                          Input orientation:                          
 ---------------------------------------------------------------------
 Center     Atomic      Atomic             Coordinates (Angstroms)
 Number     Number       Type             X           Y           Z
 ---------------------------------------------------------------------
      1          6           0       -4.491692   -1.489012    0.033967
      2          7           0       -5.508553   -2.362467    0.047758
      3          6           0       -6.731972   -1.836860    0.056060
      4          6           0       -6.937292   -0.455679    0.050358
      5          6           0       -5.811816    0.359320    0.036631
      6          7           0       -4.577630   -0.156655    0.028223
      7         35           0       -8.690906    0.280274    0.060584
      8          8           0       -3.282139   -2.066537    0.023863
      9          6           0       -2.126659   -1.209501   -0.006516
     10          6           0       -0.930300   -2.147302   -0.024231
     11          8           0        0.222353   -1.283627   -0.052265
     12          7           0        3.901376   -2.994366   -0.133087
     13          6           0        2.766277   -3.683355   -0.101481
     14          7           0        1.531900   -3.181800   -0.080932
     15          6           0        1.437911   -1.848812   -0.082421
     16          6           0        2.552001   -0.984963   -0.093625
     17          6           0        3.788768   -1.652357   -0.125495
     18          6           0        1.747652    1.168114   -1.110251
     19          6           0        2.417765    0.497128   -0.074520
     20          6           0        2.957849    1.253802    0.978294
     21          6           0        2.836402    2.643927    1.000023
     22          6           0        2.164309    3.278619   -0.041182
     23          6           0        1.615959    2.555436   -1.099158
     24          7           0        4.978137   -0.944166   -0.206311
     25         35           0        1.988139    5.187875   -0.019179
     26         16           0        6.506974   -1.552305    0.185413
     27          8           0        7.420353   -0.436005   -0.048576
     28          8           0        6.474331   -2.180800    1.507544
     29          7           0        6.712403   -2.668658   -1.050154
     30          1           0       -7.568864   -2.531536    0.067042
     31          1           0       -5.893509    1.443467    0.032141
     32          1           0       -2.148205   -0.580252   -0.901206
     33          1           0       -2.110034   -0.564999    0.877247
     34          1           0       -0.906385   -2.777208    0.869534
     35          1           0       -0.942825   -2.788897   -0.909687
     36          1           0        2.854580   -4.766773   -0.099459
     37          1           0        1.325816    0.604229   -1.936351
     38          1           0        3.470078    0.757104    1.797413
     39          1           0        3.255484    3.214779    1.821656
     40          1           0        1.096366    3.060658   -1.906231
     41          1           0        4.959915    0.067790   -0.293724
     42          1           0        5.983936   -3.384240   -0.944828
     43          1           0        7.635304   -3.100961   -0.951045
 ---------------------------------------------------------------------
                    Distance matrix (angstroms):
                    1          2          3          4          5
     1  C    0.000000
     2  N    1.340568   0.000000
     3  C    2.267233   1.331573   0.000000
     4  C    2.654997   2.382676   1.396371   0.000000
     5  C    2.271358   2.738652   2.381233   1.389643   0.000000
     6  N    1.335138   2.394286   2.732225   2.378636   1.337728
     7  Br   4.556806   4.136619   2.884389   1.901813   2.880274
     8  O    1.340394   2.246123   3.457621   3.994461   3.504884
     9  C    2.381837   3.573442   4.648269   4.869669   4.005427
    10  C    3.622187   4.583872   5.810527   6.241082   5.487810
    11  O    4.719305   5.832426   6.977137   7.208090   6.254469
    12  N    8.528633   9.432856  10.697836  11.133522  10.277262
    13  C    7.583640   8.380921   9.677350  10.227425   9.483986
    14  N    6.257986   7.089136   8.373722   8.898101   8.153743
    15  C    5.941649   6.966646   8.171066   8.491319   7.579484
    16  C    7.062857   8.178633   9.324177   9.505133   8.472160
    17  C    8.283605   9.326009  10.523924  10.794041   9.810420
    18  C    6.877424   8.152208   9.071613   8.911339   7.688631
    19  C    7.190071   8.427263   9.443636   9.404283   8.231486
    20  C    7.994400   9.253284  10.212509  10.084503   8.865318
    21  C    8.468495   9.777989  10.607653  10.297306   8.996623
    22  C    8.187692   9.523790  10.262621   9.838318   8.493935
    23  C    7.412485   8.732689   9.503407   9.140367   7.828461
    24  N    9.488533  10.585217  11.747017  11.928200  10.871118
    25  Br   9.304399  10.640138  11.197897  10.560201   9.173732
    26  S   10.999891  12.043597  13.242636  13.489594  12.467119
    27  O   11.958781  13.071999  14.221873  14.358000  13.256324
    28  O   11.086192  12.072841  13.290280  13.600407  12.631913
    29  N   11.318066  12.273994  13.515429  13.871646  12.930808
    30  H    3.249145   2.067326   1.087696   2.169873   3.383074
    31  H    3.250312   3.825385   3.385873   2.167157   1.087230
    32  H    2.681850   3.920301   4.848334   4.884296   3.896714
    33  H    2.690207   3.933049   4.863568   4.898788   3.906942
    34  H    3.900262   4.693322   5.956799   6.514015   5.881733
    35  H    3.895463   4.684487   5.945861   6.503786   5.874850
    36  H    8.045448   8.703124  10.025496  10.699942  10.069845
    37  H    6.489006   7.710160   8.651969   8.564425   7.409347
    38  H    8.458401   9.664825  10.669714  10.622448   9.455800
    39  H    9.237976  10.538535  11.330739  10.977360   9.672429
    40  H    7.462590   8.766602   9.440294   8.985128   7.667785
    41  H    9.584565  10.752283  11.851172  11.913688  10.780739
    42  H   10.690590  11.580439  12.848754  13.286272  12.414398
    43  H   12.273250  13.202423  14.457899  14.844558  13.920277
                    6          7          8          9         10
     6  N    0.000000
     7  Br   4.136543   0.000000
     8  O    2.307806   5.896069   0.000000
     9  C    2.667762   6.731514   1.438947   0.000000
    10  C    4.155532   8.131871   2.353716   1.520217   0.000000
    11  O    4.931165   9.050122   3.591686   2.350627   1.440601
    12  N    8.942716  13.012545   7.244887   6.288002   4.906573
    13  C    8.147847  12.124507   6.262040   5.483593   4.003762
    14  N    6.818342  10.794061   4.942647   4.156989   2.671298
    15  C    6.249991  10.351155   4.726264   3.622243   2.387658
    16  C    7.178620  11.314926   5.934710   4.684854   3.671821
    17  C    8.500434  12.629804   7.084601   5.933173   4.746033
    18  C    6.562037  10.541470   6.086704   4.677773   4.398051
    19  C    7.026632  11.111609   6.250677   4.854791   4.266742
    20  C    7.724990  11.725333   7.132534   5.734974   5.262154
    21  C    7.984706  11.804585   7.783180   6.363489   6.180050
    22  C    7.567012  11.262154   7.631429   6.209414   6.246400
    23  C    6.854705  10.618514   6.827531   5.419945   5.454782
    24  N    9.591031  13.726370   8.339356   7.112556   6.032439
    25  Br   8.466143  11.752996   8.966837   7.606453   7.894437
    26  S   11.173227  15.308478   9.803942   8.642567   7.463982
    27  O   12.001481  16.127543  10.826228   9.578387   8.524233
    28  O   11.332758  15.431623   9.869299   8.787083   7.561483
    29  N   11.616277  15.722336  10.070100   9.019275   7.728857
    30  H    3.819561   3.027425   4.312088   5.600963   6.650300
    31  H    2.071700   3.029729   4.374866   4.607482   6.126193
    32  H    2.635409   6.668769   2.085809   1.094023   2.169798
    33  H    2.641329   6.685006   2.087274   1.093937   2.169820
    34  H    4.588371   8.402462   2.620003   2.171230   1.093695
    35  H    4.584777   8.390113   2.620249   2.170639   1.093542
    36  H    8.746842  12.601450   6.705654   6.121729   4.603543
    37  H    6.268107  10.218973   5.675268   4.351259   4.039453
    38  H    8.290392  12.293635   7.530661   6.200416   5.578288
    39  H    8.714393  12.426943   8.594467   7.203049   7.048404
    40  H    6.803488  10.362895   7.013180   5.677240   5.896792
    41  H    9.545617  13.657071   8.519839   7.206489   6.298722
    42  H   11.086515  15.158843   9.409296   8.449359   7.084079
    43  H   12.600940  16.703332  11.009588   9.988277   8.668219
                   11         12         13         14         15
    11  O    0.000000
    12  N    4.058124   0.000000
    13  C    3.497523   1.328214   0.000000
    14  N    2.306252   2.377450   1.332541   0.000000
    15  C    1.340867   2.717263   2.265053   1.336298   0.000000
    16  C    2.349078   2.420758   2.706897   2.422160   1.409807
    17  C    3.586173   1.346747   2.273986   2.726653   2.359444
    18  C    3.075208   4.787444   5.058850   4.475243   3.202221
    19  C    2.826910   3.794083   4.195071   3.784087   2.542364
    20  C    3.870857   4.491363   5.057482   4.778060   3.614075
    21  C    4.833863   5.848800   6.422828   6.067066   4.828267
    22  C    4.958366   6.509699   6.988209   6.491420   5.178793
    23  C    4.216222   6.079205   6.421923   5.827498   4.523589
    24  N    4.770372   2.316916   3.522281   4.110873   3.656082
    25  Br   6.708161   8.403720   8.905671   8.382328   7.058450
    26  S    6.294850   2.995017   4.314684   5.241904   5.084786
    27  O    7.247736   4.351501   5.675253   6.497255   6.147095
    28  O    6.505778   3.158110   4.312342   5.287049   5.291855
    29  N    6.710800   2.974722   4.183479   5.295310   5.424842
    30  H    7.891424  11.481318  10.400492   9.125165   9.033850
    31  H    6.696860  10.754600  10.064494   8.748861   8.037534
    32  H    2.614380   6.558611   5.866936   4.580838   3.891001
    33  H    2.611599   6.561985   5.870304   4.585787   3.893207
    34  H    2.086756   4.915992   3.905435   2.648078   2.695156
    35  H    2.087739   4.910357   3.900089   2.639218   2.689988
    36  H    4.366137   2.058722   1.087013   2.064452   3.243722
    37  H    2.886418   4.778614   4.881091   4.221263   3.076854
    38  H    4.258357   4.241036   4.880452   4.774902   3.801878
    39  H    5.739957   6.541535   7.177884   6.892518   5.706928
    40  H    4.803530   6.904741   7.178261   6.518412   5.248413
    41  H    4.932456   3.243934   4.349723   4.728256   4.015286
    42  H    6.197183   2.268916   3.339765   4.539595   4.875205
    43  H    7.685203   3.823956   4.976782   6.165645   6.382011
                   16         17         18         19         20
    16  C    0.000000
    17  C    1.405711   0.000000
    18  C    2.513215   3.618143   0.000000
    19  C    1.488281   2.550007   1.404284   0.000000
    20  C    2.515113   3.217846   2.415355   1.404515   0.000000
    21  C    3.800762   4.542229   2.795829   2.436933   1.395589
    22  C    4.281493   5.192350   2.402237   2.793213   2.401857
    23  C    3.797591   4.834733   1.393603   2.435037   2.794768
    24  N    2.429095   1.386602   3.964199   2.941123   3.211840
    25  Br   6.198985   7.074061   4.172139   4.710705   4.172795
    26  S    4.005191   2.737759   5.632990   4.581416   4.593385
    27  O    4.899412   3.830645   5.989983   5.088938   4.880969
    28  O    4.402096   3.187212   6.356853   5.111747   4.943910
    29  N    4.588978   3.230403   6.274805   5.423834   5.796289
    30  H   10.239609  11.393236  10.093111  10.436744  11.223674
    31  H    8.788613  10.166388   7.730990   8.365657   8.903803
    32  H    4.786221   6.082663   4.275299   4.763638   5.741782
    33  H    4.780537   6.081423   4.672854   4.747098   5.385321
    34  H    4.012512   4.929486   5.150634   4.760514   5.585085
    35  H    4.016708   4.928961   4.789241   4.773787   5.926479
    36  H    3.793899   3.251610   6.121264   5.282053   6.117151
    37  H    2.724830   3.799673   1.085520   2.161074   3.403033
    38  H    2.730145   3.099136   3.404437   2.163119   1.086298
    39  H    4.669157   5.269231   3.880525   3.418023   2.155290
    40  H    4.665990   5.712492   2.153946   3.416570   3.879476
    41  H    2.635599   2.087772   3.492287   2.587452   2.651966
    42  H    4.273085   2.913673   6.220724   5.342287   5.862341
    43  H    5.572485   4.192354   7.274256   6.398223   6.675695
                   21         22         23         24         25
    21  C    0.000000
    22  C    1.392354   0.000000
    23  C    2.429789   1.393914   0.000000
    24  N    4.349331   5.077087   4.934433   0.000000
    25  Br   2.868797   1.917493   2.869600   6.824737   0.000000
    26  S    5.634275   6.499839   6.515035   1.691338   8.117373
    27  O    5.621223   6.436185   6.613882   2.499505   7.819069
    28  O    6.063835   7.126016   7.268467   2.589433   8.760946
    29  N    6.888408   7.554686   7.298444   2.587203   9.225328
    30  H   11.658706  11.335972  10.564009  12.649969  12.285481
    31  H    8.865057   8.264477   7.675182  11.133299   8.726030
    32  H    6.233483   5.850496   4.903127   7.169384   7.152524
    33  H    5.897415   5.821247   5.246553   7.180532   7.119983
    34  H    6.588944   6.850665   6.218928   6.256604   8.521187
    35  H    6.888042   6.871924   5.928337   6.241440   8.544732
    36  H    7.491839   8.075159   7.493218   4.374155   9.992606
    37  H    3.881305   3.383356   2.142961   4.327819   5.012388
    38  H    2.144172   3.382824   3.880964   3.030425   5.012771
    39  H    1.084704   2.159838   3.413785   4.937308   2.981266
    40  H    3.412874   2.160190   1.084709   5.830652   2.980147
    41  H    3.580443   4.264811   4.244897   1.015888   5.926390
    42  H    7.073063   7.733034   7.374469   2.740620   9.502861
    43  H    7.735623   8.453324   8.261312   3.502418  10.072917
                   26         27         28         29         30
    26  S    0.000000
    27  O    1.461211   0.000000
    28  O    1.464275   2.522059   0.000000
    29  N    1.677818   2.547370   2.614671   0.000000
    30  H   14.110355  15.135430  14.121239  14.325554   0.000000
    31  H   12.758139  13.446109  12.972108  13.303756   4.313779
    32  H    8.777116   9.607554   9.094612   9.104614   5.841965
    33  H    8.700933   9.576120   8.757820   9.272305   5.858543
    34  H    7.544953   8.698203   7.432209   7.857666   6.715130
    35  H    7.630722   8.730428   7.824768   7.657461   6.702583
    36  H    4.873801   6.293205   4.729937   4.493184  10.661716
    37  H    5.999744   6.464454   6.791466   6.364939   9.641677
    38  H    4.141818   4.520604   4.211988   5.509733  11.647642
    39  H    5.997880   5.845693   6.290622   7.403540  12.380036
    40  H    7.411416   7.461257   8.249198   8.068321  10.500126
    41  H    2.290780   2.523423   3.254871   3.336397  12.800662
    42  H    2.215175   3.399802   2.775407   1.026555  13.617246
    43  H    2.227780   2.821816   2.870403   1.023942  15.248852
                   31         32         33         34         35
    31  H    0.000000
    32  H    4.358196   0.000000
    33  H    4.366099   1.778928   0.000000
    34  H    6.586860   3.082897   2.518472   0.000000
    35  H    6.580974   2.516173   3.082407   1.779633   0.000000
    36  H   10.729094   6.572489   6.576949   4.363734   4.357608
    37  H    7.529802   3.813573   4.592221   4.928471   4.208809
    38  H    9.553221   6.374651   5.807952   5.701382   6.275049
    39  H    9.489150   7.142555   6.630792   7.357418   7.818578
    40  H    7.431752   4.979312   5.583381   6.767316   6.274448
    41  H   10.945112   7.163405   7.194149   6.622739   6.586533
    42  H   12.858263   8.602091   8.762444   7.151009   6.952388
    43  H   14.305498  10.103144  10.234519   8.739553   8.583904
                   36         37         38         39         40
    36  H    0.000000
    37  H    5.878686   0.000000
    38  H    5.872834   4.308390   0.000000
    39  H    8.219280   4.966005   2.467144   0.000000
    40  H    8.223407   2.467306   4.965668   4.310764   0.000000
    41  H    5.276663   4.024011   2.658501   4.157338   5.146305
    42  H    3.524048   6.212012   5.566876   7.657998   8.145512
    43  H    5.133756   7.383015   6.307758   8.170635   9.035245
                   41         42         43
    41  H    0.000000
    42  H    3.659107   0.000000
    43  H    4.198900   1.675500   0.000000
 Stoichiometry    C16H14Br2N6O4S
 Framework group  C1[X(C16H14Br2N6O4S)]
 Deg. of freedom   123
 Full point group                 C1      NOp   1
 Largest Abelian subgroup         C1      NOp   1
 Largest concise Abelian subgroup C1      NOp   1
                         Standard orientation:                         
 ---------------------------------------------------------------------
 Center     Atomic      Atomic             Coordinates (Angstroms)
 Number     Number       Type             X           Y           Z
 ---------------------------------------------------------------------
      1          6           0       -4.491692   -1.489012    0.033967
      2          7           0       -5.508553   -2.362467    0.047758
      3          6           0       -6.731972   -1.836860    0.056060
      4          6           0       -6.937292   -0.455679    0.050358
      5          6           0       -5.811816    0.359320    0.036631
      6          7           0       -4.577630   -0.156655    0.028223
      7         35           0       -8.690906    0.280274    0.060584
      8          8           0       -3.282139   -2.066537    0.023863
      9          6           0       -2.126659   -1.209501   -0.006516
     10          6           0       -0.930300   -2.147302   -0.024231
     11          8           0        0.222353   -1.283627   -0.052265
     12          7           0        3.901376   -2.994366   -0.133087
     13          6           0        2.766277   -3.683354   -0.101481
     14          7           0        1.531900   -3.181800   -0.080932
     15          6           0        1.437911   -1.848812   -0.082421
     16          6           0        2.552001   -0.984963   -0.093625
     17          6           0        3.788768   -1.652357   -0.125495
     18          6           0        1.747652    1.168114   -1.110251
     19          6           0        2.417765    0.497128   -0.074520
     20          6           0        2.957849    1.253802    0.978294
     21          6           0        2.836402    2.643927    1.000023
     22          6           0        2.164309    3.278619   -0.041182
     23          6           0        1.615959    2.555436   -1.099158
     24          7           0        4.978137   -0.944166   -0.206311
     25         35           0        1.988139    5.187875   -0.019179
     26         16           0        6.506974   -1.552305    0.185413
     27          8           0        7.420353   -0.436005   -0.048576
     28          8           0        6.474331   -2.180800    1.507544
     29          7           0        6.712403   -2.668658   -1.050154
     30          1           0       -7.568864   -2.531536    0.067042
     31          1           0       -5.893509    1.443467    0.032141
     32          1           0       -2.148205   -0.580252   -0.901206
     33          1           0       -2.110034   -0.564999    0.877247
     34          1           0       -0.906385   -2.777208    0.869534
     35          1           0       -0.942825   -2.788897   -0.909687
     36          1           0        2.854580   -4.766773   -0.099459
     37          1           0        1.325816    0.604229   -1.936351
     38          1           0        3.470078    0.757104    1.797413
     39          1           0        3.255484    3.214779    1.821656
     40          1           0        1.096366    3.060658   -1.906231
     41          1           0        4.959915    0.067790   -0.293724
     42          1           0        5.983936   -3.384240   -0.944828
     43          1           0        7.635304   -3.100961   -0.951045
 ---------------------------------------------------------------------
 Rotational constants (GHZ):      0.1340594      0.0354273      0.0284219
 Standard basis: 6-31G(d) (6D, 7F)
 There are   497 symmetry adapted cartesian basis functions of A   symmetry.
 There are   497 symmetry adapted basis functions of A   symmetry.
   497 basis functions,  1002 primitive gaussians,   497 cartesian basis functions
   135 alpha electrons      135 beta electrons
       nuclear repulsion energy      3616.9196459179 Hartrees.
 NAtoms=   43 NActive=   43 NUniq=   43 SFac= 1.00D+00 NAtFMM=   60 NAOKFM=F Big=F
 Integral buffers will be    262144 words long.
 Raffenetti 2 integral format.
 Two-electron integral symmetry is turned on.
 ------------------------------------------------------------------------------
 Polarizable Continuum Model (PCM)
 =================================
 Model                : PCM (using non-symmetric T matrix).
 Atomic radii         : SMD-Coulomb.
 Polarization charges : Total charges.
 Charge compensation  : None.
 Solution method      : On-the-fly selection.
 Cavity type          : VdW (van der Waals Surface) (Alpha=1.000).
 Cavity algorithm     : GePol (No added spheres)
                        Default sphere list used, NSphG=   43.
                        Lebedev-Laikov grids with approx.  5.0 points / Ang**2.
                        Smoothing algorithm: Karplus/York (Gamma=1.0000).
                        Polarization charges: spherical gaussians, with
                                              point-specific exponents (IZeta= 3).
                        Self-potential: point-specific (ISelfS= 7).
                        Self-field    : sphere-specific E.n sum rule (ISelfD= 2).
 Solvent              : DiMethylSulfoxide, Eps=  46.826000 Eps(inf)=   2.007889
 ------------------------------------------------------------------------------
 ------------------------------------------------------------------------------
 Atomic radii for non-electrostatic terms: SMD-CDS.
 ------------------------------------------------------------------------------
 Nuclear repulsion after PCM non-electrostatic terms =     3616.9103068398 Hartrees.
 One-electron integrals computed using PRISM.
 NBasis=   497 RedAO= T EigKep=  4.35D-04  NBF=   497
 NBsUse=   497 1.00D-06 EigRej= -1.00D+00 NBFU=   497
 ExpMin= 1.17D-01 ExpMax= 5.74D+05 ExpMxC= 5.74D+03 IAcc=2 IRadAn=         4 AccDes= 0.00D+00
 Harris functional with IExCor=  402 and IRadAn=       4 diagonalized for initial guess.
 HarFok:  IExCor=  402 AccDes= 0.00D+00 IRadAn=         4 IDoV= 1 UseB2=F ITyADJ=14
 ICtDFT=  3500011 ScaDFX=  1.000000  1.000000  1.000000  1.000000
 FoFCou: FMM=F IPFlag=           0 FMFlag=      100000 FMFlg1=           0
         NFxFlg=           0 DoJE=T BraDBF=F KetDBF=T FulRan=T
         wScrn=  0.000000 ICntrl=     500 IOpCl=  0 I1Cent=   200000004 NGrid=           0
         NMat0=    1 NMatS0=      1 NMatT0=    0 NMatD0=    1 NMtDS0=    0 NMtDT0=    0
 Petite list used in FoFCou.
 Requested convergence on RMS density matrix=1.00D-08 within 128 cycles.
 Requested convergence on MAX density matrix=1.00D-06.
 Requested convergence on             energy=1.00D-06.
 No special actions if energy rises.
 Inv3:  Mode=1 IEnd=    51369132.
 Iteration    1 A*A^-1 deviation from unit magnitude is 3.33D-15 for    759.
 Iteration    1 A*A^-1 deviation from orthogonality  is 2.69D-15 for    764    420.
 Iteration    1 A^-1*A deviation from unit magnitude is 3.11D-15 for   1603.
 Iteration    1 A^-1*A deviation from orthogonality  is 6.77D-11 for   1639   1564.
 Error on total polarization charges =  0.01527
 SCF Done:  E(RB3LYP) =  -6789.10816056     A.U. after   14 cycles
            NFock= 14  Conv=0.42D-08     -V/T= 2.0066
 SMD-CDS (non-electrostatic) energy       (kcal/mol) =      -5.86
 (included in total energy above)

 **********************************************************************

            Population analysis using the SCF density.

 **********************************************************************

 Orbital symmetries:
       Occupied  (A) (A) (A) (A) (A) (A) (A) (A) (A) (A) (A) (A)
                 (A) (A) (A) (A) (A) (A) (A) (A) (A) (A) (A) (A)
                 (A) (A) (A) (A) (A) (A) (A) (A) (A) (A) (A) (A)
                 (A) (A) (A) (A) (A) (A) (A) (A) (A) (A) (A) (A)
                 (A) (A) (A) (A) (A) (A) (A) (A) (A) (A) (A) (A)
                 (A) (A) (A) (A) (A) (A) (A) (A) (A) (A) (A) (A)
                 (A) (A) (A) (A) (A) (A) (A) (A) (A) (A) (A) (A)
                 (A) (A) (A) (A) (A) (A) (A) (A) (A) (A) (A) (A)
                 (A) (A) (A) (A) (A) (A) (A) (A) (A) (A) (A) (A)
                 (A) (A) (A) (A) (A) (A) (A) (A) (A) (A) (A) (A)
                 (A) (A) (A) (A) (A) (A) (A) (A) (A) (A) (A) (A)
                 (A) (A) (A)
       Virtual   (A) (A) (A) (A) (A) (A) (A) (A) (A) (A) (A) (A)
                 (A) (A) (A) (A) (A) (A) (A) (A) (A) (A) (A) (A)
                 (A) (A) (A) (A) (A) (A) (A) (A) (A) (A) (A) (A)
                 (A) (A) (A) (A) (A) (A) (A) (A) (A) (A) (A) (A)
                 (A) (A) (A) (A) (A) (A) (A) (A) (A) (A) (A) (A)
                 (A) (A) (A) (A) (A) (A) (A) (A) (A) (A) (A) (A)
                 (A) (A) (A) (A) (A) (A) (A) (A) (A) (A) (A) (A)
                 (A) (A) (A) (A) (A) (A) (A) (A) (A) (A) (A) (A)
                 (A) (A) (A) (A) (A) (A) (A) (A) (A) (A) (A) (A)
                 (A) (A) (A) (A) (A) (A) (A) (A) (A) (A) (A) (A)
                 (A) (A) (A) (A) (A) (A) (A) (A) (A) (A) (A) (A)
                 (A) (A) (A) (A) (A) (A) (A) (A) (A) (A) (A) (A)
                 (A) (A) (A) (A) (A) (A) (A) (A) (A) (A) (A) (A)
                 (A) (A) (A) (A) (A) (A) (A) (A) (A) (A) (A) (A)
                 (A) (A) (A) (A) (A) (A) (A) (A) (A) (A) (A) (A)
                 (A) (A) (A) (A) (A) (A) (A) (A) (A) (A) (A) (A)
                 (A) (A) (A) (A) (A) (A) (A) (A) (A) (A) (A) (A)
                 (A) (A) (A) (A) (A) (A) (A) (A) (A) (A) (A) (A)
                 (A) (A) (A) (A) (A) (A) (A) (A) (A) (A) (A) (A)
                 (A) (A) (A) (A) (A) (A) (A) (A) (A) (A) (A) (A)
                 (A) (A) (A) (A) (A) (A) (A) (A) (A) (A) (A) (A)
                 (A) (A) (A) (A) (A) (A) (A) (A) (A) (A) (A) (A)
                 (A) (A) (A) (A) (A) (A) (A) (A) (A) (A) (A) (A)
                 (A) (A) (A) (A) (A) (A) (A) (A) (A) (A) (A) (A)
                 (A) (A) (A) (A) (A) (A) (A) (A) (A) (A) (A) (A)
                 (A) (A) (A) (A) (A) (A) (A) (A) (A) (A) (A) (A)
                 (A) (A) (A) (A) (A) (A) (A) (A) (A) (A) (A) (A)
                 (A) (A) (A) (A) (A) (A) (A) (A) (A) (A) (A) (A)
                 (A) (A) (A) (A) (A) (A) (A) (A) (A) (A) (A) (A)
                 (A) (A) (A) (A) (A) (A) (A) (A) (A) (A) (A) (A)
                 (A) (A)
 The electronic state is 1-A.
 Alpha  occ. eigenvalues -- -482.92377-482.91275 -89.14492 -61.88550 -61.87460
 Alpha  occ. eigenvalues --  -56.40694 -56.40269 -56.40259 -56.39585 -56.39181
 Alpha  occ. eigenvalues --  -56.39175 -19.19953 -19.19812 -19.15411 -19.15276
 Alpha  occ. eigenvalues --  -14.38793 -14.36329 -14.35229 -14.35140 -14.34392
 Alpha  occ. eigenvalues --  -14.33951 -10.32256 -10.30321 -10.29403 -10.26551
 Alpha  occ. eigenvalues --  -10.25563 -10.25536 -10.25477 -10.25027 -10.24578
 Alpha  occ. eigenvalues --  -10.24553 -10.21729 -10.21541 -10.20428 -10.20390
 Alpha  occ. eigenvalues --  -10.20308 -10.20213  -8.59692  -8.58604  -8.16643
 Alpha  occ. eigenvalues --   -6.55115  -6.53987  -6.53793  -6.53779  -6.52738
 Alpha  occ. eigenvalues --   -6.52703  -6.13184  -6.13052  -6.13013  -2.66681
 Alpha  occ. eigenvalues --   -2.66301  -2.66292  -2.65561  -2.65236  -2.65236
 Alpha  occ. eigenvalues --   -2.65208  -2.65181  -2.64184  -2.64184  -1.13108
 Alpha  occ. eigenvalues --   -1.10170  -1.09417  -1.01164  -1.00336  -0.98897
 Alpha  occ. eigenvalues --   -0.95159  -0.91083  -0.90854  -0.88299  -0.87755
 Alpha  occ. eigenvalues --   -0.84022  -0.82684  -0.79506  -0.77748  -0.75905
 Alpha  occ. eigenvalues --   -0.74318  -0.72677  -0.69739  -0.68118  -0.67107
 Alpha  occ. eigenvalues --   -0.65822  -0.62715  -0.62178  -0.61782  -0.59668
 Alpha  occ. eigenvalues --   -0.57587  -0.56613  -0.54981  -0.54481  -0.53012
 Alpha  occ. eigenvalues --   -0.52139  -0.51504  -0.51206  -0.50139  -0.48882
 Alpha  occ. eigenvalues --   -0.47803  -0.47654  -0.46751  -0.46327  -0.45889
 Alpha  occ. eigenvalues --   -0.44935  -0.44320  -0.44217  -0.43236  -0.43047
 Alpha  occ. eigenvalues --   -0.42922  -0.41880  -0.41553  -0.39005  -0.37969
 Alpha  occ. eigenvalues --   -0.37334  -0.36525  -0.36132  -0.36018  -0.35841
 Alpha  occ. eigenvalues --   -0.35375  -0.35285  -0.34216  -0.33286  -0.33281
 Alpha  occ. eigenvalues --   -0.33052  -0.32253  -0.31371  -0.31057  -0.30969
 Alpha  occ. eigenvalues --   -0.30387  -0.28889  -0.28552  -0.27752  -0.27315
 Alpha  occ. eigenvalues --   -0.26530  -0.26403  -0.25823  -0.24675  -0.23222
 Alpha virt. eigenvalues --   -0.05116  -0.03928  -0.02199  -0.01975  -0.01441
 Alpha virt. eigenvalues --   -0.00735  -0.00082   0.00478   0.05728   0.06985
 Alpha virt. eigenvalues --    0.08529   0.09770   0.11220   0.11378   0.12079
 Alpha virt. eigenvalues --    0.12484   0.12717   0.13113   0.13949   0.14201
 Alpha virt. eigenvalues --    0.14504   0.14893   0.15453   0.15959   0.16207
 Alpha virt. eigenvalues --    0.16314   0.17325   0.17936   0.18566   0.19622
 Alpha virt. eigenvalues --    0.19876   0.21013   0.21284   0.22381   0.24067
 Alpha virt. eigenvalues --    0.24390   0.24822   0.26124   0.27924   0.28150
 Alpha virt. eigenvalues --    0.28465   0.29385   0.30497   0.30798   0.32623
 Alpha virt. eigenvalues --    0.32834   0.33128   0.33806   0.34640   0.35313
 Alpha virt. eigenvalues --    0.36731   0.37088   0.38158   0.38905   0.42401
 Alpha virt. eigenvalues --    0.42508   0.43475   0.43823   0.44393   0.45274
 Alpha virt. eigenvalues --    0.45301   0.45321   0.46011   0.46237   0.46407
 Alpha virt. eigenvalues --    0.46751   0.47046   0.47737   0.48396   0.48521
 Alpha virt. eigenvalues --    0.49281   0.49618   0.50591   0.51398   0.52188
 Alpha virt. eigenvalues --    0.52969   0.53315   0.53709   0.54375   0.54420
 Alpha virt. eigenvalues --    0.55203   0.56333   0.56533   0.56630   0.57347
 Alpha virt. eigenvalues --    0.57814   0.58357   0.58609   0.58976   0.59179
 Alpha virt. eigenvalues --    0.59432   0.60149   0.60560   0.62383   0.62688
 Alpha virt. eigenvalues --    0.63305   0.63744   0.64172   0.64347   0.65355
 Alpha virt. eigenvalues --    0.65654   0.65853   0.66262   0.66335   0.68448
 Alpha virt. eigenvalues --    0.69111   0.71307   0.71694   0.72667   0.73244
 Alpha virt. eigenvalues --    0.73819   0.74122   0.74772   0.75399   0.76777
 Alpha virt. eigenvalues --    0.78195   0.79134   0.79483   0.79695   0.79957
 Alpha virt. eigenvalues --    0.80719   0.81748   0.82030   0.82585   0.83215
 Alpha virt. eigenvalues --    0.84303   0.84797   0.84915   0.85205   0.85589
 Alpha virt. eigenvalues --    0.85773   0.86889   0.87532   0.87694   0.88229
 Alpha virt. eigenvalues --    0.89077   0.89624   0.89802   0.90328   0.91167
 Alpha virt. eigenvalues --    0.91621   0.92340   0.92732   0.93224   0.93717
 Alpha virt. eigenvalues --    0.94392   0.96174   0.96362   0.97651   0.98503
 Alpha virt. eigenvalues --    1.00592   1.00875   1.01832   1.02236   1.02945
 Alpha virt. eigenvalues --    1.04225   1.05083   1.05699   1.06274   1.06936
 Alpha virt. eigenvalues --    1.07657   1.09073   1.09437   1.11219   1.11337
 Alpha virt. eigenvalues --    1.13130   1.13555   1.15116   1.15362   1.16587
 Alpha virt. eigenvalues --    1.18061   1.19355   1.20342   1.21289   1.21686
 Alpha virt. eigenvalues --    1.23001   1.23313   1.24769   1.25513   1.25553
 Alpha virt. eigenvalues --    1.28459   1.31729   1.33233   1.33419   1.34647
 Alpha virt. eigenvalues --    1.35224   1.36155   1.37723   1.38103   1.40050
 Alpha virt. eigenvalues --    1.41269   1.42239   1.43458   1.43989   1.44771
 Alpha virt. eigenvalues --    1.45050   1.45259   1.47187   1.47907   1.48925
 Alpha virt. eigenvalues --    1.49372   1.49722   1.49956   1.50341   1.51899
 Alpha virt. eigenvalues --    1.51997   1.54049   1.54941   1.56546   1.57283
 Alpha virt. eigenvalues --    1.58615   1.59953   1.61198   1.61533   1.63482
 Alpha virt. eigenvalues --    1.65809   1.67605   1.68531   1.69715   1.72820
 Alpha virt. eigenvalues --    1.74175   1.74706   1.75502   1.76252   1.78153
 Alpha virt. eigenvalues --    1.79000   1.79232   1.80275   1.80320   1.80802
 Alpha virt. eigenvalues --    1.81092   1.82221   1.82892   1.83120   1.83532
 Alpha virt. eigenvalues --    1.84466   1.85768   1.86661   1.88807   1.89788
 Alpha virt. eigenvalues --    1.91816   1.92325   1.93237   1.94507   1.96424
 Alpha virt. eigenvalues --    1.97491   1.98037   1.98498   2.00052   2.00659
 Alpha virt. eigenvalues --    2.03242   2.04241   2.04878   2.05789   2.07560
 Alpha virt. eigenvalues --    2.10090   2.10747   2.11732   2.12399   2.12570
 Alpha virt. eigenvalues --    2.14088   2.14489   2.15174   2.17091   2.17459
 Alpha virt. eigenvalues --    2.18086   2.18385   2.19713   2.20566   2.20706
 Alpha virt. eigenvalues --    2.21354   2.22334   2.24309   2.26630   2.27379
 Alpha virt. eigenvalues --    2.28424   2.29170   2.29497   2.30199   2.31403
 Alpha virt. eigenvalues --    2.32746   2.33921   2.34923   2.36491   2.38034
 Alpha virt. eigenvalues --    2.38661   2.39540   2.42124   2.42882   2.44150
 Alpha virt. eigenvalues --    2.47181   2.49112   2.51586   2.54377   2.55504
 Alpha virt. eigenvalues --    2.57334   2.57681   2.58417   2.59443   2.60818
 Alpha virt. eigenvalues --    2.61413   2.63052   2.63853   2.65282   2.66113
 Alpha virt. eigenvalues --    2.66767   2.69447   2.71204   2.72289   2.72617
 Alpha virt. eigenvalues --    2.73925   2.74651   2.75763   2.76566   2.77466
 Alpha virt. eigenvalues --    2.80066   2.82031   2.84327   2.85728   2.89321
 Alpha virt. eigenvalues --    2.92366   2.94571   2.98041   3.03696   3.07180
 Alpha virt. eigenvalues --    3.11028   3.24325   3.26772   3.35521   3.37889
 Alpha virt. eigenvalues --    3.45636   3.71879   3.80963   3.95445   3.98947
 Alpha virt. eigenvalues --    4.01644   4.01887   4.02434   4.06532   4.06725
 Alpha virt. eigenvalues --    4.10094   4.11034   4.13341   4.13948   4.19254
 Alpha virt. eigenvalues --    4.22130   4.22746   4.25686   4.28337   4.31172
 Alpha virt. eigenvalues --    4.33496   4.39987   4.44158   4.46660   4.54561
 Alpha virt. eigenvalues --    4.55440   4.65143   4.74476   8.59262   8.60390
 Alpha virt. eigenvalues --   72.76577  72.78710
          Condensed to atoms (all electrons):
               1          2          3          4          5          6
     1  C    4.306215   0.457582  -0.064154  -0.029823  -0.059604   0.405856
     2  N    0.457582   6.838317   0.444348  -0.017640  -0.037727  -0.081345
     3  C   -0.064154   0.444348   4.848809   0.453355  -0.042194  -0.031630
     4  C   -0.029823  -0.017640   0.453355   4.995165   0.462206  -0.021322
     5  C   -0.059604  -0.037727  -0.042194   0.462206   4.832643   0.445423
     6  N    0.405856  -0.081345  -0.031630  -0.021322   0.445423   6.889215
     7  Br   0.000837   0.003872  -0.051064   0.246611  -0.050759   0.003754
     8  O    0.311113  -0.082964   0.001425   0.000687   0.001341  -0.078888
     9  C   -0.023350   0.003819  -0.000139   0.000036   0.000624  -0.007276
    10  C    0.002957  -0.000026   0.000000   0.000002  -0.000011   0.001127
    11  O   -0.000012   0.000000   0.000000   0.000000   0.000000   0.000004
    12  N    0.000000   0.000000   0.000000   0.000000   0.000000   0.000000
    13  C    0.000000   0.000000   0.000000   0.000000   0.000000   0.000000
    14  N    0.000000   0.000000   0.000000   0.000000   0.000000   0.000000
    15  C    0.000000   0.000000   0.000000   0.000000   0.000000   0.000000
    16  C    0.000000   0.000000   0.000000   0.000000   0.000000   0.000000
    17  C    0.000000   0.000000   0.000000   0.000000   0.000000   0.000000
    18  C    0.000000   0.000000   0.000000   0.000000   0.000000   0.000000
    19  C    0.000000   0.000000   0.000000   0.000000   0.000000   0.000000
    20  C    0.000000   0.000000   0.000000   0.000000   0.000000   0.000000
    21  C    0.000000   0.000000   0.000000   0.000000   0.000000   0.000000
    22  C    0.000000   0.000000   0.000000   0.000000   0.000000   0.000000
    23  C    0.000000   0.000000   0.000000   0.000000   0.000000   0.000000
    24  N    0.000000   0.000000   0.000000   0.000000   0.000000   0.000000
    25  Br   0.000000   0.000000   0.000000   0.000000   0.000000   0.000000
    26  S    0.000000   0.000000   0.000000   0.000000   0.000000   0.000000
    27  O    0.000000   0.000000   0.000000   0.000000   0.000000   0.000000
    28  O    0.000000   0.000000   0.000000   0.000000   0.000000   0.000000
    29  N    0.000000   0.000000   0.000000   0.000000   0.000000   0.000000
    30  H    0.004563  -0.045416   0.381207  -0.057614   0.003985  -0.000395
    31  H    0.003925  -0.000497   0.004384  -0.060768   0.381385  -0.047079
    32  H   -0.004330  -0.000044   0.000031  -0.000026  -0.000023   0.006971
    33  H   -0.004404  -0.000056   0.000030  -0.000024  -0.000026   0.006857
    34  H   -0.000007  -0.000009   0.000000   0.000000   0.000000  -0.000008
    35  H   -0.000012  -0.000010   0.000000   0.000000   0.000000  -0.000008
    36  H    0.000000   0.000000   0.000000   0.000000   0.000000   0.000000
    37  H    0.000000   0.000000   0.000000   0.000000   0.000000   0.000000
    38  H    0.000000   0.000000   0.000000   0.000000   0.000000   0.000000
    39  H    0.000000   0.000000   0.000000   0.000000   0.000000   0.000000
    40  H    0.000000   0.000000   0.000000   0.000000   0.000000   0.000000
    41  H    0.000000   0.000000   0.000000   0.000000   0.000000   0.000000
    42  H    0.000000   0.000000   0.000000   0.000000   0.000000   0.000000
    43  H    0.000000   0.000000   0.000000   0.000000   0.000000   0.000000
               7          8          9         10         11         12
     1  C    0.000837   0.311113  -0.023350   0.002957  -0.000012   0.000000
     2  N    0.003872  -0.082964   0.003819  -0.000026   0.000000   0.000000
     3  C   -0.051064   0.001425  -0.000139   0.000000   0.000000   0.000000
     4  C    0.246611   0.000687   0.000036   0.000002   0.000000   0.000000
     5  C   -0.050759   0.001341   0.000624  -0.000011   0.000000   0.000000
     6  N    0.003754  -0.078888  -0.007276   0.001127   0.000004   0.000000
     7  Br  34.956691   0.000004  -0.000001   0.000000   0.000000   0.000000
     8  O    0.000004   8.227732   0.194054  -0.035997   0.000975   0.000000
     9  C   -0.000001   0.194054   4.903204   0.358076  -0.036156   0.000001
    10  C    0.000000  -0.035997   0.358076   4.897813   0.196415   0.000054
    11  O    0.000000   0.000975  -0.036156   0.196415   8.241385   0.000094
    12  N    0.000000   0.000000   0.000001   0.000054   0.000094   6.930171
    13  C    0.000000   0.000000  -0.000005   0.000474   0.002147   0.464639
    14  N    0.000000   0.000004   0.001179  -0.008640  -0.073220  -0.048950
    15  C    0.000000   0.000000   0.002427  -0.024202   0.302893  -0.034613
    16  C    0.000000   0.000000   0.000104   0.005802  -0.075164  -0.049823
    17  C    0.000000   0.000000   0.000004   0.000020   0.001379   0.402590
    18  C    0.000000   0.000000  -0.000009  -0.000096   0.002926  -0.000053
    19  C    0.000000   0.000000  -0.000069  -0.000246  -0.000026   0.004867
    20  C    0.000000   0.000000  -0.000001   0.000009  -0.000467  -0.000029
    21  C    0.000000   0.000000   0.000000   0.000000  -0.000016   0.000001
    22  C    0.000000   0.000000   0.000000   0.000000   0.000010   0.000000
    23  C    0.000000   0.000000  -0.000001   0.000004  -0.000178   0.000001
    24  N    0.000000   0.000000   0.000000   0.000001  -0.000031  -0.089873
    25  Br   0.000000   0.000000   0.000000   0.000000   0.000000   0.000000
    26  S    0.000000   0.000000   0.000000   0.000000   0.000000   0.003563
    27  O    0.000000   0.000000   0.000000   0.000000   0.000000  -0.000070
    28  O    0.000000   0.000000   0.000000   0.000000   0.000000  -0.003401
    29  N    0.000000   0.000000   0.000000   0.000000   0.000000  -0.015192
    30  H    0.001444  -0.000055   0.000002   0.000000   0.000000   0.000000
    31  H    0.001332  -0.000078  -0.000022  -0.000001   0.000000   0.000000
    32  H    0.000000  -0.030710   0.364186  -0.033936   0.003817   0.000000
    33  H    0.000000  -0.030546   0.364384  -0.034267   0.003986   0.000000
    34  H    0.000000   0.004077  -0.034748   0.365214  -0.030771  -0.000003
    35  H    0.000000   0.004081  -0.034528   0.365284  -0.030797  -0.000002
    36  H    0.000000   0.000000  -0.000001  -0.000039  -0.000076  -0.060900
    37  H    0.000000   0.000000  -0.000005  -0.000052   0.002044  -0.000003
    38  H    0.000000   0.000000   0.000000   0.000000  -0.000006  -0.000113
    39  H    0.000000   0.000000   0.000000   0.000000   0.000000   0.000000
    40  H    0.000000   0.000000   0.000000   0.000000  -0.000002   0.000000
    41  H    0.000000   0.000000   0.000000   0.000000   0.000001   0.003347
    42  H    0.000000   0.000000   0.000000   0.000000   0.000000   0.033981
    43  H    0.000000   0.000000   0.000000   0.000000   0.000000   0.000454
              13         14         15         16         17         18
     1  C    0.000000   0.000000   0.000000   0.000000   0.000000   0.000000
     2  N    0.000000   0.000000   0.000000   0.000000   0.000000   0.000000
     3  C    0.000000   0.000000   0.000000   0.000000   0.000000   0.000000
     4  C    0.000000   0.000000   0.000000   0.000000   0.000000   0.000000
     5  C    0.000000   0.000000   0.000000   0.000000   0.000000   0.000000
     6  N    0.000000   0.000000   0.000000   0.000000   0.000000   0.000000
     7  Br   0.000000   0.000000   0.000000   0.000000   0.000000   0.000000
     8  O    0.000000   0.000004   0.000000   0.000000   0.000000   0.000000
     9  C   -0.000005   0.001179   0.002427   0.000104   0.000004  -0.000009
    10  C    0.000474  -0.008640  -0.024202   0.005802   0.000020  -0.000096
    11  O    0.002147  -0.073220   0.302893  -0.075164   0.001379   0.002926
    12  N    0.464639  -0.048950  -0.034613  -0.049823   0.402590  -0.000053
    13  C    4.635468   0.446236  -0.050975  -0.033080  -0.049779   0.000001
    14  N    0.446236   6.962426   0.380715  -0.047260  -0.045742   0.000047
    15  C   -0.050975   0.380715   4.450718   0.474714  -0.014926  -0.005677
    16  C   -0.033080  -0.047260   0.474714   5.192216   0.454050  -0.044018
    17  C   -0.049779  -0.045742  -0.014926   0.454050   4.530117   0.002310
    18  C    0.000001   0.000047  -0.005677  -0.044018   0.002310   4.946637
    19  C    0.000629   0.006188  -0.049261   0.273993  -0.052655   0.529521
    20  C    0.000007  -0.000068   0.001986  -0.043984  -0.007775  -0.038355
    21  C    0.000000   0.000001  -0.000044   0.005649   0.000303  -0.045742
    22  C    0.000000   0.000000   0.000028   0.000669   0.000018  -0.030027
    23  C    0.000000   0.000001   0.000314   0.005811  -0.000047   0.495183
    24  N    0.004450   0.000067   0.004493  -0.080910   0.231435   0.000067
    25  Br   0.000000   0.000000   0.000000   0.000001   0.000000   0.005297
    26  S   -0.000053   0.000117   0.000123   0.001663   0.009407   0.000010
    27  O   -0.000001   0.000000   0.000000  -0.000090   0.001257   0.000000
    28  O   -0.000099  -0.000002  -0.000003   0.000095   0.004161   0.000000
    29  N    0.000060  -0.000012   0.000003  -0.000233  -0.006291   0.000000
    30  H    0.000000   0.000000   0.000000   0.000000   0.000000   0.000000
    31  H    0.000000   0.000000   0.000000   0.000000   0.000000   0.000000
    32  H    0.000000  -0.000012   0.000032  -0.000023   0.000000   0.000086
    33  H    0.000000  -0.000008   0.000088  -0.000043   0.000000   0.000013
    34  H   -0.000066   0.006664  -0.003505   0.000093   0.000015   0.000005
    35  H   -0.000068   0.006951  -0.003575   0.000009   0.000008  -0.000007
    36  H    0.393869  -0.060125   0.003372   0.000740   0.004238   0.000000
    37  H   -0.000003  -0.000091   0.001647  -0.007066   0.000146   0.362663
    38  H   -0.000004   0.000000   0.000199  -0.005019   0.000817   0.004959
    39  H    0.000000   0.000000   0.000000  -0.000165  -0.000003   0.000383
    40  H    0.000000   0.000000  -0.000006  -0.000160   0.000000  -0.032453
    41  H   -0.000090  -0.000003   0.000233  -0.007987  -0.009184   0.000297
    42  H    0.000103   0.000107   0.000003   0.000397  -0.000134   0.000000
    43  H    0.000004   0.000000   0.000000   0.000005   0.000130   0.000000
              19         20         21         22         23         24
     1  C    0.000000   0.000000   0.000000   0.000000   0.000000   0.000000
     2  N    0.000000   0.000000   0.000000   0.000000   0.000000   0.000000
     3  C    0.000000   0.000000   0.000000   0.000000   0.000000   0.000000
     4  C    0.000000   0.000000   0.000000   0.000000   0.000000   0.000000
     5  C    0.000000   0.000000   0.000000   0.000000   0.000000   0.000000
     6  N    0.000000   0.000000   0.000000   0.000000   0.000000   0.000000
     7  Br   0.000000   0.000000   0.000000   0.000000   0.000000   0.000000
     8  O    0.000000   0.000000   0.000000   0.000000   0.000000   0.000000
     9  C   -0.000069  -0.000001   0.000000   0.000000  -0.000001   0.000000
    10  C   -0.000246   0.000009   0.000000   0.000000   0.000004   0.000001
    11  O   -0.000026  -0.000467  -0.000016   0.000010  -0.000178  -0.000031
    12  N    0.004867  -0.000029   0.000001   0.000000   0.000001  -0.089873
    13  C    0.000629   0.000007   0.000000   0.000000   0.000000   0.004450
    14  N    0.006188  -0.000068   0.000001   0.000000   0.000001   0.000067
    15  C   -0.049261   0.001986  -0.000044   0.000028   0.000314   0.004493
    16  C    0.273993  -0.043984   0.005649   0.000669   0.005811  -0.080910
    17  C   -0.052655  -0.007775   0.000303   0.000018  -0.000047   0.231435
    18  C    0.529521  -0.038355  -0.045742  -0.030027   0.495183   0.000067
    19  C    4.873844   0.520611  -0.025193  -0.029440  -0.022071  -0.012203
    20  C    0.520611   4.978800   0.491846  -0.030180  -0.046615  -0.001639
    21  C   -0.025193   0.491846   4.985386   0.519403  -0.034970  -0.000376
    22  C   -0.029440  -0.030180   0.519403   4.799536   0.515263   0.000016
    23  C   -0.022071  -0.046615  -0.034970   0.515263   4.989205  -0.000006
    24  N   -0.012203  -0.001639  -0.000376   0.000016  -0.000006   7.508079
    25  Br   0.000195   0.005358  -0.059265   0.255239  -0.059052   0.000000
    26  S   -0.000216   0.000069  -0.000012   0.000001  -0.000002   0.114610
    27  O   -0.000011  -0.000004   0.000000   0.000000   0.000000  -0.052425
    28  O    0.000014  -0.000023   0.000000   0.000000   0.000000  -0.057727
    29  N   -0.000005   0.000001   0.000000   0.000000   0.000000  -0.052564
    30  H    0.000000   0.000000   0.000000   0.000000   0.000000   0.000000
    31  H    0.000000   0.000000   0.000000   0.000000   0.000000   0.000000
    32  H    0.000000   0.000000   0.000000   0.000000   0.000003   0.000000
    33  H    0.000033   0.000000   0.000000   0.000000   0.000001   0.000000
    34  H   -0.000011   0.000000   0.000000   0.000000   0.000000   0.000000
    35  H    0.000030  -0.000001   0.000000   0.000000   0.000000   0.000000
    36  H    0.000030   0.000000   0.000000   0.000000   0.000000  -0.000163
    37  H   -0.040717   0.005239   0.000344   0.004155  -0.037621  -0.000010
    38  H   -0.042607   0.363223  -0.035904   0.004047   0.000374   0.001050
    39  H    0.003585  -0.032345   0.362869  -0.044044   0.004611   0.000000
    40  H    0.003621   0.000369   0.004640  -0.044388   0.362939   0.000000
    41  H    0.010917   0.009080   0.000289  -0.000087  -0.000116   0.289221
    42  H   -0.000007   0.000000   0.000000   0.000000   0.000000  -0.003212
    43  H    0.000000   0.000000   0.000000   0.000000   0.000000   0.002403
              25         26         27         28         29         30
     1  C    0.000000   0.000000   0.000000   0.000000   0.000000   0.004563
     2  N    0.000000   0.000000   0.000000   0.000000   0.000000  -0.045416
     3  C    0.000000   0.000000   0.000000   0.000000   0.000000   0.381207
     4  C    0.000000   0.000000   0.000000   0.000000   0.000000  -0.057614
     5  C    0.000000   0.000000   0.000000   0.000000   0.000000   0.003985
     6  N    0.000000   0.000000   0.000000   0.000000   0.000000  -0.000395
     7  Br   0.000000   0.000000   0.000000   0.000000   0.000000   0.001444
     8  O    0.000000   0.000000   0.000000   0.000000   0.000000  -0.000055
     9  C    0.000000   0.000000   0.000000   0.000000   0.000000   0.000002
    10  C    0.000000   0.000000   0.000000   0.000000   0.000000   0.000000
    11  O    0.000000   0.000000   0.000000   0.000000   0.000000   0.000000
    12  N    0.000000   0.003563  -0.000070  -0.003401  -0.015192   0.000000
    13  C    0.000000  -0.000053  -0.000001  -0.000099   0.000060   0.000000
    14  N    0.000000   0.000117   0.000000  -0.000002  -0.000012   0.000000
    15  C    0.000000   0.000123   0.000000  -0.000003   0.000003   0.000000
    16  C    0.000001   0.001663  -0.000090   0.000095  -0.000233   0.000000
    17  C    0.000000   0.009407   0.001257   0.004161  -0.006291   0.000000
    18  C    0.005297   0.000010   0.000000   0.000000   0.000000   0.000000
    19  C    0.000195  -0.000216  -0.000011   0.000014  -0.000005   0.000000
    20  C    0.005358   0.000069  -0.000004  -0.000023   0.000001   0.000000
    21  C   -0.059265  -0.000012   0.000000   0.000000   0.000000   0.000000
    22  C    0.255239   0.000001   0.000000   0.000000   0.000000   0.000000
    23  C   -0.059052  -0.000002   0.000000   0.000000   0.000000   0.000000
    24  N    0.000000   0.114610  -0.052425  -0.057727  -0.052564   0.000000
    25  Br  34.999092   0.000000   0.000000   0.000000   0.000000   0.000000
    26  S    0.000000  13.498220   0.477631   0.458169   0.211973   0.000000
    27  O    0.000000   0.477631   8.211764  -0.047128  -0.059068   0.000000
    28  O    0.000000   0.458169  -0.047128   8.224222  -0.061075   0.000000
    29  N    0.000000   0.211973  -0.059068  -0.061075   7.259415   0.000000
    30  H    0.000000   0.000000   0.000000   0.000000   0.000000   0.504962
    31  H    0.000000   0.000000   0.000000   0.000000   0.000000  -0.000129
    32  H    0.000000   0.000000   0.000000   0.000000   0.000000   0.000000
    33  H    0.000000   0.000000   0.000000   0.000000   0.000000   0.000000
    34  H    0.000000   0.000000   0.000000   0.000000   0.000000   0.000000
    35  H    0.000000   0.000000   0.000000   0.000000   0.000000   0.000000
    36  H    0.000000  -0.000077   0.000000   0.000007   0.000053   0.000000
    37  H   -0.000133  -0.000001   0.000000   0.000000   0.000000   0.000000
    38  H   -0.000132   0.000350  -0.000017   0.000042   0.000001   0.000000
    39  H   -0.002379  -0.000001   0.000000   0.000000   0.000000   0.000000
    40  H   -0.002351   0.000000   0.000000   0.000000   0.000000   0.000000
    41  H    0.000001  -0.011955   0.005160   0.000116   0.000986   0.000000
    42  H    0.000000   0.001437   0.001472  -0.000939   0.261943   0.000000
    43  H    0.000000  -0.009037  -0.000230  -0.000193   0.297627   0.000000
              31         32         33         34         35         36
     1  C    0.003925  -0.004330  -0.004404  -0.000007  -0.000012   0.000000
     2  N   -0.000497  -0.000044  -0.000056  -0.000009  -0.000010   0.000000
     3  C    0.004384   0.000031   0.000030   0.000000   0.000000   0.000000
     4  C   -0.060768  -0.000026  -0.000024   0.000000   0.000000   0.000000
     5  C    0.381385  -0.000023  -0.000026   0.000000   0.000000   0.000000
     6  N   -0.047079   0.006971   0.006857  -0.000008  -0.000008   0.000000
     7  Br   0.001332   0.000000   0.000000   0.000000   0.000000   0.000000
     8  O   -0.000078  -0.030710  -0.030546   0.004077   0.004081   0.000000
     9  C   -0.000022   0.364186   0.364384  -0.034748  -0.034528  -0.000001
    10  C   -0.000001  -0.033936  -0.034267   0.365214   0.365284  -0.000039
    11  O    0.000000   0.003817   0.003986  -0.030771  -0.030797  -0.000076
    12  N    0.000000   0.000000   0.000000  -0.000003  -0.000002  -0.060900
    13  C    0.000000   0.000000   0.000000  -0.000066  -0.000068   0.393869
    14  N    0.000000  -0.000012  -0.000008   0.006664   0.006951  -0.060125
    15  C    0.000000   0.000032   0.000088  -0.003505  -0.003575   0.003372
    16  C    0.000000  -0.000023  -0.000043   0.000093   0.000009   0.000740
    17  C    0.000000   0.000000   0.000000   0.000015   0.000008   0.004238
    18  C    0.000000   0.000086   0.000013   0.000005  -0.000007   0.000000
    19  C    0.000000   0.000000   0.000033  -0.000011   0.000030   0.000030
    20  C    0.000000   0.000000   0.000000   0.000000  -0.000001   0.000000
    21  C    0.000000   0.000000   0.000000   0.000000   0.000000   0.000000
    22  C    0.000000   0.000000   0.000000   0.000000   0.000000   0.000000
    23  C    0.000000   0.000003   0.000001   0.000000   0.000000   0.000000
    24  N    0.000000   0.000000   0.000000   0.000000   0.000000  -0.000163
    25  Br   0.000000   0.000000   0.000000   0.000000   0.000000   0.000000
    26  S    0.000000   0.000000   0.000000   0.000000   0.000000  -0.000077
    27  O    0.000000   0.000000   0.000000   0.000000   0.000000   0.000000
    28  O    0.000000   0.000000   0.000000   0.000000   0.000000   0.000007
    29  N    0.000000   0.000000   0.000000   0.000000   0.000000   0.000053
    30  H   -0.000129   0.000000   0.000000   0.000000   0.000000   0.000000
    31  H    0.510280   0.000007   0.000007   0.000000   0.000000   0.000000
    32  H    0.000007   0.551725  -0.042509   0.005194  -0.006866   0.000000
    33  H    0.000007  -0.042509   0.551586  -0.006860   0.005219   0.000000
    34  H    0.000000   0.005194  -0.006860   0.549605  -0.041935   0.000010
    35  H    0.000000  -0.006866   0.005219  -0.041935   0.548922   0.000010
    36  H    0.000000   0.000000   0.000000   0.000010   0.000010   0.528167
    37  H    0.000000   0.000125  -0.000004   0.000007  -0.000011   0.000000
    38  H    0.000000   0.000000   0.000000   0.000000   0.000000   0.000000
    39  H    0.000000   0.000000   0.000000   0.000000   0.000000   0.000000
    40  H    0.000000   0.000000   0.000000   0.000000   0.000000   0.000000
    41  H    0.000000   0.000000   0.000000   0.000000   0.000000   0.000003
    42  H    0.000000   0.000000   0.000000   0.000000   0.000000  -0.000215
    43  H    0.000000   0.000000   0.000000   0.000000   0.000000  -0.000001
              37         38         39         40         41         42
     1  C    0.000000   0.000000   0.000000   0.000000   0.000000   0.000000
     2  N    0.000000   0.000000   0.000000   0.000000   0.000000   0.000000
     3  C    0.000000   0.000000   0.000000   0.000000   0.000000   0.000000
     4  C    0.000000   0.000000   0.000000   0.000000   0.000000   0.000000
     5  C    0.000000   0.000000   0.000000   0.000000   0.000000   0.000000
     6  N    0.000000   0.000000   0.000000   0.000000   0.000000   0.000000
     7  Br   0.000000   0.000000   0.000000   0.000000   0.000000   0.000000
     8  O    0.000000   0.000000   0.000000   0.000000   0.000000   0.000000
     9  C   -0.000005   0.000000   0.000000   0.000000   0.000000   0.000000
    10  C   -0.000052   0.000000   0.000000   0.000000   0.000000   0.000000
    11  O    0.002044  -0.000006   0.000000  -0.000002   0.000001   0.000000
    12  N   -0.000003  -0.000113   0.000000   0.000000   0.003347   0.033981
    13  C   -0.000003  -0.000004   0.000000   0.000000  -0.000090   0.000103
    14  N   -0.000091   0.000000   0.000000   0.000000  -0.000003   0.000107
    15  C    0.001647   0.000199   0.000000  -0.000006   0.000233   0.000003
    16  C   -0.007066  -0.005019  -0.000165  -0.000160  -0.007987   0.000397
    17  C    0.000146   0.000817  -0.000003   0.000000  -0.009184  -0.000134
    18  C    0.362663   0.004959   0.000383  -0.032453   0.000297   0.000000
    19  C   -0.040717  -0.042607   0.003585   0.003621   0.010917  -0.000007
    20  C    0.005239   0.363223  -0.032345   0.000369   0.009080   0.000000
    21  C    0.000344  -0.035904   0.362869   0.004640   0.000289   0.000000
    22  C    0.004155   0.004047  -0.044044  -0.044388  -0.000087   0.000000
    23  C   -0.037621   0.000374   0.004611   0.362939  -0.000116   0.000000
    24  N   -0.000010   0.001050   0.000000   0.000000   0.289221  -0.003212
    25  Br  -0.000133  -0.000132  -0.002379  -0.002351   0.000001   0.000000
    26  S   -0.000001   0.000350  -0.000001   0.000000  -0.011955   0.001437
    27  O    0.000000  -0.000017   0.000000   0.000000   0.005160   0.001472
    28  O    0.000000   0.000042   0.000000   0.000000   0.000116  -0.000939
    29  N    0.000000   0.000001   0.000000   0.000000   0.000986   0.261943
    30  H    0.000000   0.000000   0.000000   0.000000   0.000000   0.000000
    31  H    0.000000   0.000000   0.000000   0.000000   0.000000   0.000000
    32  H    0.000125   0.000000   0.000000   0.000000   0.000000   0.000000
    33  H   -0.000004   0.000000   0.000000   0.000000   0.000000   0.000000
    34  H    0.000007   0.000000   0.000000   0.000000   0.000000   0.000000
    35  H   -0.000011   0.000000   0.000000   0.000000   0.000000   0.000000
    36  H    0.000000   0.000000   0.000000   0.000000   0.000003  -0.000215
    37  H    0.537351  -0.000147   0.000014  -0.005111   0.000002   0.000000
    38  H   -0.000147   0.529835  -0.004995   0.000014  -0.000142   0.000000
    39  H    0.000014  -0.004995   0.527831  -0.000134   0.000002   0.000000
    40  H   -0.005111   0.000014  -0.000134   0.529175   0.000000   0.000000
    41  H    0.000002  -0.000142   0.000002   0.000000   0.296061  -0.000047
    42  H    0.000000   0.000000   0.000000   0.000000  -0.000047   0.323646
    43  H    0.000000   0.000000   0.000000   0.000000  -0.000023  -0.013659
              43
     1  C    0.000000
     2  N    0.000000
     3  C    0.000000
     4  C    0.000000
     5  C    0.000000
     6  N    0.000000
     7  Br   0.000000
     8  O    0.000000
     9  C    0.000000
    10  C    0.000000
    11  O    0.000000
    12  N    0.000454
    13  C    0.000004
    14  N    0.000000
    15  C    0.000000
    16  C    0.000005
    17  C    0.000130
    18  C    0.000000
    19  C    0.000000
    20  C    0.000000
    21  C    0.000000
    22  C    0.000000
    23  C    0.000000
    24  N    0.002403
    25  Br   0.000000
    26  S   -0.009037
    27  O   -0.000230
    28  O   -0.000193
    29  N    0.297627
    30  H    0.000000
    31  H    0.000000
    32  H    0.000000
    33  H    0.000000
    34  H    0.000000
    35  H    0.000000
    36  H   -0.000001
    37  H    0.000000
    38  H    0.000000
    39  H    0.000000
    40  H    0.000000
    41  H   -0.000023
    42  H   -0.013659
    43  H    0.324775
 Mulliken charges:
               1
     1  C    0.692647
     2  N   -0.482207
     3  C    0.055591
     4  C    0.029154
     5  C    0.062736
     6  N   -0.491254
     7  Br  -0.112722
     8  O   -0.486256
     9  C   -0.055788
    10  C   -0.055740
    11  O   -0.511155
    12  N   -0.540737
    13  C    0.186137
    14  N   -0.526569
    15  C    0.562797
    16  C   -0.020985
    17  C    0.544130
    18  C   -0.153968
    19  C    0.046660
    20  C   -0.175112
    21  C   -0.169209
    22  C    0.079780
    23  C   -0.173029
    24  N   -0.804752
    25  Br  -0.141871
    26  S    1.244010
    27  O   -0.538239
    28  O   -0.516236
    29  N   -0.837622
    30  H    0.207445
    31  H    0.207254
    32  H    0.186301
    33  H    0.186543
    34  H    0.187038
    35  H    0.187306
    36  H    0.191098
    37  H    0.177239
    38  H    0.184176
    39  H    0.184773
    40  H    0.183847
    41  H    0.413920
    42  H    0.395124
    43  H    0.397746
 Sum of Mulliken charges =   0.00000
 Mulliken charges with hydrogens summed into heavy atoms:
               1
     1  C    0.692647
     2  N   -0.482207
     3  C    0.263036
     4  C    0.029154
     5  C    0.269989
     6  N   -0.491254
     7  Br  -0.112722
     8  O   -0.486256
     9  C    0.317057
    10  C    0.318604
    11  O   -0.511155
    12  N   -0.540737
    13  C    0.377234
    14  N   -0.526569
    15  C    0.562797
    16  C   -0.020985
    17  C    0.544130
    18  C    0.023271
    19  C    0.046660
    20  C    0.009064
    21  C    0.015564
    22  C    0.079780
    23  C    0.010818
    24  N   -0.390832
    25  Br  -0.141871
    26  S    1.244010
    27  O   -0.538239
    28  O   -0.516236
    29  N   -0.044752
 Electronic spatial extent (au):  <R**2>=          31410.7148
 Charge=              0.0000 electrons
 Dipole moment (field-independent basis, Debye):
    X=             -3.5410    Y=             -1.0037    Z=             -2.2109  Tot=              4.2935
 Quadrupole moment (field-independent basis, Debye-Ang):
   XX=           -221.3033   YY=           -197.1220   ZZ=           -195.2707
   XY=            -17.4661   XZ=             -9.8826   YZ=              7.1165
 Traceless Quadrupole moment (field-independent basis, Debye-Ang):
   XX=            -16.7380   YY=              7.4433   ZZ=              9.2946
   XY=            -17.4661   XZ=             -9.8826   YZ=              7.1165
 Octapole moment (field-independent basis, Debye-Ang**2):
  XXX=           -455.8729  YYY=             63.2312  ZZZ=              1.6447  XYY=             23.6510
  XXY=            -38.5745  XXZ=            -74.4587  XZZ=            -76.1546  YZZ=             61.3148
  YYZ=            -20.0968  XYZ=             54.6327
 Hexadecapole moment (field-independent basis, Debye-Ang**3):
 XXXX=         -28906.5723 YYYY=          -6835.8186 ZZZZ=           -519.6423 XXXY=           -637.0423
 XXXZ=           -595.6942 YYYX=           -434.3749 YYYZ=             80.4373 ZZZX=              9.0502
 ZZZY=             -1.3338 XXYY=          -5260.0053 XXZZ=          -4973.7135 YYZZ=          -1245.5509
 XXYZ=            351.3625 YYXZ=           -125.9125 ZZXY=            142.0507
 N-N= 3.616910306840D+03 E-N=-2.334995961128D+04  KE= 6.744630265738D+03
 ******************************Gaussian NBO Version 3.1******************************
             N A T U R A L   A T O M I C   O R B I T A L   A N D
          N A T U R A L   B O N D   O R B I T A L   A N A L Y S I S
 ******************************Gaussian NBO Version 3.1******************************
       /RESON  / : Allow strongly delocalized NBO set

 Analyzing the SCF density

 Job title: Title Card Required                                             

 Storage needed:    747114 in NPA,    991406 in NBO ( 157281001 available)


 NATURAL POPULATIONS:  Natural atomic orbital occupancies 
                                                          
   NAO  Atom  No  lang   Type(AO)    Occupancy      Energy
 ----------------------------------------------------------
     1    C    1  S      Cor( 1S)     1.99921     -10.20112
     2    C    1  S      Val( 2S)     0.74399      -0.13960
     3    C    1  S      Ryd( 3S)     0.00244       1.04398
     4    C    1  S      Ryd( 4S)     0.00042       3.41801
     5    C    1  px     Val( 2p)     0.75374      -0.02915
     6    C    1  px     Ryd( 3p)     0.00557       0.85921
     7    C    1  py     Val( 2p)     0.84176      -0.01241
     8    C    1  py     Ryd( 3p)     0.01651       0.71634
     9    C    1  pz     Val( 2p)     0.88304      -0.14319
    10    C    1  pz     Ryd( 3p)     0.00105       0.58539
    11    C    1  dxy    Ryd( 3d)     0.00247       2.73195
    12    C    1  dxz    Ryd( 3d)     0.00230       2.03336
    13    C    1  dyz    Ryd( 3d)     0.00153       2.17623
    14    C    1  dx2y2  Ryd( 3d)     0.00233       2.64440
    15    C    1  dz2    Ryd( 3d)     0.00038       2.47673

    16    N    2  S      Cor( 1S)     1.99939     -14.15745
    17    N    2  S      Val( 2S)     1.38285      -0.53694
    18    N    2  S      Ryd( 3S)     0.00073       1.78801
    19    N    2  S      Ryd( 4S)     0.00002       3.94921
    20    N    2  px     Val( 2p)     1.22189      -0.18127
    21    N    2  px     Ryd( 3p)     0.00301       1.18793
    22    N    2  py     Val( 2p)     1.66434      -0.23760
    23    N    2  py     Ryd( 3p)     0.00502       0.89391
    24    N    2  pz     Val( 2p)     1.22276      -0.19790
    25    N    2  pz     Ryd( 3p)     0.00051       0.82205
    26    N    2  dxy    Ryd( 3d)     0.00344       2.32827
    27    N    2  dxz    Ryd( 3d)     0.00036       1.75652
    28    N    2  dyz    Ryd( 3d)     0.00313       1.75112
    29    N    2  dx2y2  Ryd( 3d)     0.00274       2.05465
    30    N    2  dz2    Ryd( 3d)     0.00218       2.09398

    31    C    3  S      Cor( 1S)     1.99902     -10.11427
    32    C    3  S      Val( 2S)     0.93958      -0.19823
    33    C    3  S      Ryd( 3S)     0.00175       1.01869
    34    C    3  S      Ryd( 4S)     0.00011       3.92285
    35    C    3  px     Val( 2p)     1.02078      -0.05611
    36    C    3  px     Ryd( 3p)     0.00926       0.87100
    37    C    3  py     Val( 2p)     1.08959      -0.07117
    38    C    3  py     Ryd( 3p)     0.00822       0.73145
    39    C    3  pz     Val( 2p)     0.86225      -0.13277
    40    C    3  pz     Ryd( 3p)     0.00052       0.57553
    41    C    3  dxy    Ryd( 3d)     0.00142       2.49469
    42    C    3  dxz    Ryd( 3d)     0.00078       1.99922
    43    C    3  dyz    Ryd( 3d)     0.00063       1.89050
    44    C    3  dx2y2  Ryd( 3d)     0.00111       2.44327
    45    C    3  dz2    Ryd( 3d)     0.00039       2.32111

    46    C    4  S      Cor( 1S)     1.99856     -10.12525
    47    C    4  S      Val( 2S)     0.97801      -0.25741
    48    C    4  S      Ryd( 3S)     0.00085       1.08616
    49    C    4  S      Ryd( 4S)     0.00004       4.05036
    50    C    4  px     Val( 2p)     1.01142      -0.17379
    51    C    4  px     Ryd( 3p)     0.00581       0.97425
    52    C    4  py     Val( 2p)     1.09612      -0.12078
    53    C    4  py     Ryd( 3p)     0.00712       0.77205
    54    C    4  pz     Val( 2p)     1.13161      -0.16159
    55    C    4  pz     Ryd( 3p)     0.00097       0.62723
    56    C    4  dxy    Ryd( 3d)     0.00111       2.30950
    57    C    4  dxz    Ryd( 3d)     0.00093       1.80977
    58    C    4  dyz    Ryd( 3d)     0.00044       1.87761
    59    C    4  dx2y2  Ryd( 3d)     0.00111       2.31290
    60    C    4  dz2    Ryd( 3d)     0.00055       2.22803

    61    C    5  S      Cor( 1S)     1.99901     -10.11355
    62    C    5  S      Val( 2S)     0.93795      -0.19658
    63    C    5  S      Ryd( 3S)     0.00189       1.02452
    64    C    5  S      Ryd( 4S)     0.00011       3.91258
    65    C    5  px     Val( 2p)     0.92054      -0.03855
    66    C    5  px     Ryd( 3p)     0.01048       0.60429
    67    C    5  py     Val( 2p)     1.18834      -0.08903
    68    C    5  py     Ryd( 3p)     0.00632       1.00264
    69    C    5  pz     Val( 2p)     0.86449      -0.13270
    70    C    5  pz     Ryd( 3p)     0.00054       0.57506
    71    C    5  dxy    Ryd( 3d)     0.00109       2.44705
    72    C    5  dxz    Ryd( 3d)     0.00098       2.07634
    73    C    5  dyz    Ryd( 3d)     0.00044       1.81085
    74    C    5  dx2y2  Ryd( 3d)     0.00141       2.49386
    75    C    5  dz2    Ryd( 3d)     0.00038       2.34345

    76    N    6  S      Cor( 1S)     1.99936     -14.15923
    77    N    6  S      Val( 2S)     1.38161      -0.53822
    78    N    6  S      Ryd( 3S)     0.00083       1.82890
    79    N    6  S      Ryd( 4S)     0.00004       3.85897
    80    N    6  px     Val( 2p)     1.51936      -0.22016
    81    N    6  px     Ryd( 3p)     0.00339       1.13023
    82    N    6  py     Val( 2p)     1.37941      -0.20949
    83    N    6  py     Ryd( 3p)     0.00367       1.14392
    84    N    6  pz     Val( 2p)     1.24370      -0.20174
    85    N    6  pz     Ryd( 3p)     0.00054       0.83172
    86    N    6  dxy    Ryd( 3d)     0.00278       2.07020
    87    N    6  dxz    Ryd( 3d)     0.00208       1.73591
    88    N    6  dyz    Ryd( 3d)     0.00130       1.77143
    89    N    6  dx2y2  Ryd( 3d)     0.00330       2.34521
    90    N    6  dz2    Ryd( 3d)     0.00215       2.09383

    91   Br    7  S      Cor( 1S)     2.00000    -476.77490
    92   Br    7  S      Cor( 2S)     1.99997     -67.36684
    93   Br    7  S      Cor( 3S)     1.99977      -8.90318
    94   Br    7  S      Val( 4S)     1.86248      -1.01225
    95   Br    7  S      Ryd( 5S)     0.00416       0.40245
    96   Br    7  S      Ryd( 6S)     0.00004       1.58356
    97   Br    7  S      Ryd( 8S)     0.00000      48.19585
    98   Br    7  S      Ryd( 7S)     0.00000      33.08375
    99   Br    7  px     Cor( 2p)     1.99997     -56.39803
   100   Br    7  px     Cor( 3p)     1.99988      -6.54584
   101   Br    7  px     Val( 4p)     1.25856      -0.25693
   102   Br    7  px     Ryd( 5p)     0.00385       0.49352
   103   Br    7  py     Cor( 2p)     1.99999     -56.39563
   104   Br    7  py     Cor( 3p)     1.99997      -6.53894
   105   Br    7  py     Val( 4p)     1.84596      -0.29430
   106   Br    7  py     Ryd( 5p)     0.00158       0.52774
   107   Br    7  pz     Cor( 2p)     2.00000     -56.39517
   108   Br    7  pz     Cor( 3p)     1.99999      -6.53761
   109   Br    7  pz     Val( 4p)     1.94163      -0.30117
   110   Br    7  pz     Ryd( 5p)     0.00129       0.51337
   111   Br    7  dxy    Cor( 3d)     1.99986      -2.66268
   112   Br    7  dxy    Ryd( 4d)     0.00166       0.87680
   113   Br    7  dxz    Cor( 3d)     1.99995      -2.66131
   114   Br    7  dxz    Ryd( 4d)     0.00232       0.57437
   115   Br    7  dyz    Cor( 3d)     1.99999      -2.65393
   116   Br    7  dyz    Ryd( 4d)     0.00043       0.48737
   117   Br    7  dx2y2  Cor( 3d)     1.99986      -2.66267
   118   Br    7  dx2y2  Ryd( 4d)     0.00164       0.87467
   119   Br    7  dz2    Cor( 3d)     1.99992      -2.65584
   120   Br    7  dz2    Ryd( 4d)     0.00077       0.62600

   121    O    8  S      Cor( 1S)     1.99971     -18.98640
   122    O    8  S      Val( 2S)     1.59555      -0.88272
   123    O    8  S      Ryd( 3S)     0.00154       2.02406
   124    O    8  S      Ryd( 4S)     0.00009       3.70414
   125    O    8  px     Val( 2p)     1.37792      -0.32147
   126    O    8  px     Ryd( 3p)     0.00096       1.46389
   127    O    8  py     Val( 2p)     1.73390      -0.34005
   128    O    8  py     Ryd( 3p)     0.00189       1.26123
   129    O    8  pz     Val( 2p)     1.80573      -0.32307
   130    O    8  pz     Ryd( 3p)     0.00227       1.07951
   131    O    8  dxy    Ryd( 3d)     0.00131       2.67754
   132    O    8  dxz    Ryd( 3d)     0.00044       2.00343
   133    O    8  dyz    Ryd( 3d)     0.00166       1.90543
   134    O    8  dx2y2  Ryd( 3d)     0.00133       2.37437
   135    O    8  dz2    Ryd( 3d)     0.00075       2.28914

   136    C    9  S      Cor( 1S)     1.99924     -10.12818
   137    C    9  S      Val( 2S)     1.04808      -0.26556
   138    C    9  S      Ryd( 3S)     0.00284       1.27680
   139    C    9  S      Ryd( 4S)     0.00004       4.25378
   140    C    9  px     Val( 2p)     0.78889      -0.07518
   141    C    9  px     Ryd( 3p)     0.00381       0.76170
[...]
   429. RY*(  10) N  29                  0.00001     3.34406   
   430. RY*(   1) H  30                  0.00108     0.56089   
   431. RY*(   1) H  31                  0.00115     0.55952   
   432. RY*(   1) H  32                  0.00214     0.64731   
   433. RY*(   1) H  33                  0.00213     0.64471   
   434. RY*(   1) H  34                  0.00211     0.64452   
   435. RY*(   1) H  35                  0.00210     0.64542   
   436. RY*(   1) H  36                  0.00095     0.56397   
   437. RY*(   1) H  37                  0.00091     0.57927   
   438. RY*(   1) H  38                  0.00082     0.58228   
   439. RY*(   1) H  39                  0.00099     0.56862   
   440. RY*(   1) H  40                  0.00099     0.56883   
   441. RY*(   1) H  41                  0.00172     0.69026   
   442. RY*(   1) H  42                  0.00186     0.67768   
   443. RY*(   1) H  43                  0.00057     0.60221   
   444. BD*(   1) C   1 - N   2          0.04122     0.49963   
   445. BD*(   1) C   1 - N   6          0.04478     0.50276   
   446. BD*(   2) C   1 - N   6          0.43198    -0.01892  449(v),453(v),139(g),190(g)
                                                    142(g),149(v)
   447. BD*(   1) C   1 - O   8          0.05597     0.38764   
   448. BD*(   1) N   2 - C   3          0.01261     0.52662   
   449. BD*(   2) N   2 - C   3          0.34275    -0.00985  453(v),446(v),160(g),149(g)
                                                    158(g),150(g)
   450. BD*(   1) C   3 - C   4          0.03607     0.53185   
   451. BD*(   1) C   3 - H  30          0.02026     0.46793   
   452. BD*(   1) C   4 - C   5          0.03455     0.54160   
   453. BD*(   2) C   4 - C   5          0.33227    -0.00374  449(v),446(v),180(g),168(g)
                                                    189(v)
   454. BD*(   1) C   4 -Br   7          0.03404     0.08097   
   455. BD*(   1) C   5 - N   6          0.01407     0.51841   
   456. BD*(   1) C   5 - H  31          0.02000     0.46774   
   457. BD*(   1) O   8 - C   9          0.01887     0.26707   
   458. BD*(   1) C   9 - C  10          0.01674     0.39179   
   459. BD*(   1) C   9 - H  32          0.02005     0.45531   
   460. BD*(   1) C   9 - H  33          0.02011     0.45578   
   461. BD*(   1) C  10 - O  11          0.02065     0.26539   
   462. BD*(   1) C  10 - H  34          0.01967     0.45645   
   463. BD*(   1) C  10 - H  35          0.01958     0.45660   
   464. BD*(   1) O  11 - C  15          0.04506     0.38945   
   465. BD*(   1) N  12 - C  13          0.02802     0.53577   
   466. BD*(   1) N  12 - C  17          0.02286     0.49867   
   467. BD*(   2) N  12 - C  17          0.50036    -0.01781  469(v),473(v),250(g),302(g)
                                                    491(v)
   468. BD*(   1) C  13 - N  14          0.02767     0.53011   
   469. BD*(   2) C  13 - N  14          0.37892    -0.00676  467(v),473(v),261(g),270(g)
                                                    260(g)
   470. BD*(   1) C  13 - H  36          0.02432     0.47631   
   471. BD*(   1) N  14 - C  15          0.02836     0.51468   
   472. BD*(   1) C  15 - C  16          0.04114     0.52783   
   473. BD*(   2) C  15 - C  16          0.38867     0.00891  469(v),467(v),482(v),284(g)
                                                    477(v),481(v),270(v)
   474. BD*(   1) C  16 - C  17          0.03999     0.53797   
   475. BD*(   1) C  16 - C  19          0.02973     0.45941   
   476. BD*(   1) C  17 - N  24          0.04088     0.42993   
   477. BD*(   1) C  18 - C  19          0.02443     0.56393   
   478. BD*(   1) C  18 - C  23          0.01581     0.57867   
   479. BD*(   2) C  18 - C  23          0.30383     0.03060  482(v),486(v),311(g),362(g)
   480. BD*(   1) C  18 - H  37          0.01107     0.48337   
   481. BD*(   1) C  19 - C  20          0.02432     0.56102   
   482. BD*(   2) C  19 - C  20          0.35781     0.02718  479(v),486(v),473(v),331(g)
                                                    474(v),472(v),330(g)
   483. BD*(   1) C  20 - C  21          0.01592     0.57485   
   484. BD*(   1) C  20 - H  38          0.01111     0.48175   
   485. BD*(   1) C  21 - C  22          0.02478     0.56376   
   486. BD*(   2) C  21 - C  22          0.38448     0.01345  482(v),479(v),340(g),350(g)
                                                    331(v),378(v),360(v)
   487. BD*(   1) C  21 - H  39          0.01199     0.48038   
   488. BD*(   1) C  22 - C  23          0.02492     0.56161   
   489. BD*(   1) C  22 -Br  25          0.03497     0.08483   
   490. BD*(   1) C  23 - H  40          0.01203     0.48037   
   491. BD*(   1) N  24 - S  26          0.26214     0.11701  391(g),476(g),494(g),370(g)
                                                    466(v),398(g),474(v),495(g)
                                                    467(v),492(g),397(g),396(g)
   492. BD*(   1) N  24 - H  41          0.01321     0.44754   
   493. BD*(   1) S  26 - O  27          0.14031     0.27769  494(g),392(g),394(g),390(g)
                                                    476(v),403(g),495(g),391(g)
   494. BD*(   1) S  26 - O  28          0.17973     0.27804  493(g),390(g),392(g),391(g)
                                                    495(g),413(g),395(g),397(g)
                                                    491(g),410(g)
   495. BD*(   1) S  26 - N  29          0.22423     0.13505  390(g),391(g),494(g),420(g)
                                                    493(g),397(g),396(g),491(g)
   496. BD*(   1) N  29 - H  42          0.01956     0.44759   
   497. BD*(   1) N  29 - H  43          0.00664     0.45131   
       -------------------------------
              Total Lewis  264.14504  ( 97.8315%)
        Valence non-Lewis    5.25551  (  1.9465%)
        Rydberg non-Lewis    0.59945  (  0.2220%)
       -------------------------------
            Total unit  1  270.00000  (100.0000%)
           Charge unit  1    0.00000
 Sorting of NBOs:                   61   92  106   62   93   64   66   68   97   95
 Sorting of NBOs:                   99   75   78  111  112   91  113   60   56   79
 Sorting of NBOs:                   81   55   82   84   80   77   76   58   89   57
 Sorting of NBOs:                   59   83   86   87   85   88   90  107   63   94
 Sorting of NBOs:                   65   67   98   69   96  100  108  109  110   70
 Sorting of NBOs:                   73   71   74   72  101  104  103  105  102   50
 Sorting of NBOs:                   51  116  126   21    4    2    1   22   28   33
 Sorting of NBOs:                    5   25   12   23   14   18  132  129   48   52
 Sorting of NBOs:                    9    7   42   45   31   29   35   40   38   34
 Sorting of NBOs:                   49   11   53   54   32   46   15  119  121   13
 Sorting of NBOs:                    8   27   44   47   41   20   17   19   16   37
 Sorting of NBOs:                  115  135  114  123  124    3  122  120    6   24
 Sorting of NBOs:                   26  117  118  131  130  133  127  128  125  134
 Sorting of NBOs:                   10   43   30   36   39  446  467  449  469  453
 Sorting of NBOs:                  473  486  482  479  454  489  491  495  461  457
 Sorting of NBOs:                  493  494  447  464  458  476  492  496  497  459
 Sorting of NBOs:                  460  462  463  475  456  451  202  386  470  381
 Sorting of NBOs:                  490  487  484  480  198  466  444  445  205  380
 Sorting of NBOs:                  471  455  196  448  472  468  450  378  465  474
 Sorting of NBOs:                  452  431  430  481  488  398  485  477  436  439
 Sorting of NBOs:                  440  483  258  478  437  438  203  180  142  443
 Sorting of NBOs:                  160  395  396  385  434  433  435  432  197  229
 Sorting of NBOs:                  219  442  384  441  379  261  391  397  339  136
 Sorting of NBOs:                  359  382  166  348  329  309  390  199  331  394
 Sorting of NBOs:                  149  270  393  176  156  392  146  228  218  298
 Sorting of NBOs:                  186  421  250  201  320  290  288  319  268  284
 Sorting of NBOs:                  157  177  279  200  278  248  370  422  189  209
 Sorting of NBOs:                  369  361  239  341  167  220  350  137  411  423
 Sorting of NBOs:                  349  230  353  312  321  299  402  291  303  340
 Sorting of NBOs:                  358  338  147  168  420  208  311  249  360  332
 Sorting of NBOs:                  169  238  368  174  401  159  269  328  308  412
 Sorting of NBOs:                  179  187  356  383  318  259  204  362  403  289
 Sorting of NBOs:                  221  342  231  413  310  388  371  190  301  264
 Sorting of NBOs:                  138  280  400  302  150  210  240  252  153  193
 Sorting of NBOs:                  265  275  272  164  184  225  235  255  330  232
 Sorting of NBOs:                  300  222  234  143  414  415  419  170  404  304
 Sorting of NBOs:                  351  322  215  172  285  293  246  405  224  366
 Sorting of NBOs:                  251  425  317  409  346  281  282  337  354  375
 Sorting of NBOs:                  365  428  148  181  212  242  271  424  139  161
 Sorting of NBOs:                  188  195  191  427  211  158  178  410  154  373
 Sorting of NBOs:                  416  274  374  256  151  408  227  237  152  276
 Sorting of NBOs:                  140  372  324  407  426  254  245  223  260  323
 Sorting of NBOs:                  314  247  417  192  273  216  217  241  253  233
 Sorting of NBOs:                  333  313  292  145  343  307  287  363  352  171
 Sorting of NBOs:                  295  376  283  267  263  185  165  327  141  294
 Sorting of NBOs:                  305  262  345  335  297  334  183  266  243  347
 Sorting of NBOs:                  367  418  344  325  213  173  336  316  406  162
 Sorting of NBOs:                  163  355  315  357  214  296  244  429  175  182
 Sorting of NBOs:                  326  144  377  399  364  257  286  306  277  155
 Sorting of NBOs:                  194  226  236  207  387  389  206
 Reordering of NBOs for storage:    61   92  106   62   93   64   66   68   97   95
 Reordering of NBOs for storage:    99   75   78  111  112   91  113   60   56   79
 Reordering of NBOs for storage:    81   55   82   84   80   77   76   58   89   57
 Reordering of NBOs for storage:    59   83   86   87   85   88   90  107   63   94
 Reordering of NBOs for storage:    65   67   98   69   96  100  108  109  110   70
 Reordering of NBOs for storage:    73   71   74   72  101  104  103  105  102   50
 Reordering of NBOs for storage:    51  116  126   21    4    2    1   22   28   33
 Reordering of NBOs for storage:     5   25   12   23   14   18  132  129   48   52
 Reordering of NBOs for storage:     9    7   42   45   31   29   35   40   38   34
 Reordering of NBOs for storage:    49   11   53   54   32   46   15  119  121   13
 Reordering of NBOs for storage:     8   27   44   47   41   20   17   19   16   37
 Reordering of NBOs for storage:   115  135  114  123  124    3  122  120    6   24
 Reordering of NBOs for storage:    26  117  118  131  130  133  127  128  125  134
 Reordering of NBOs for storage:    10   43   30   36   39  446  467  449  469  453
 Reordering of NBOs for storage:   473  486  482  479  454  489  491  495  461  457
 Reordering of NBOs for storage:   493  494  447  464  458  476  492  496  497  459
 Reordering of NBOs for storage:   460  462  463  475  456  451  470  490  487  484
 Reordering of NBOs for storage:   480  466  444  445  471  455  448  472  468  450
 Reordering of NBOs for storage:   465  474  452  481  488  485  477  483  478  202
 Reordering of NBOs for storage:   386  381  198  205  380  196  378  431  430  398
 Reordering of NBOs for storage:   436  439  440  258  437  438  203  180  142  443
 Reordering of NBOs for storage:   160  395  396  385  434  433  435  432  197  229
 Reordering of NBOs for storage:   219  442  384  441  379  261  391  397  339  136
 Reordering of NBOs for storage:   359  382  166  348  329  309  390  199  331  394
 Reordering of NBOs for storage:   149  270  393  176  156  392  146  228  218  298
 Reordering of NBOs for storage:   186  421  250  201  320  290  288  319  268  284
 Reordering of NBOs for storage:   157  177  279  200  278  248  370  422  189  209
 Reordering of NBOs for storage:   369  361  239  341  167  220  350  137  411  423
 Reordering of NBOs for storage:   349  230  353  312  321  299  402  291  303  340
 Reordering of NBOs for storage:   358  338  147  168  420  208  311  249  360  332
 Reordering of NBOs for storage:   169  238  368  174  401  159  269  328  308  412
 Reordering of NBOs for storage:   179  187  356  383  318  259  204  362  403  289
 Reordering of NBOs for storage:   221  342  231  413  310  388  371  190  301  264
 Reordering of NBOs for storage:   138  280  400  302  150  210  240  252  153  193
 Reordering of NBOs for storage:   265  275  272  164  184  225  235  255  330  232
 Reordering of NBOs for storage:   300  222  234  143  414  415  419  170  404  304
 Reordering of NBOs for storage:   351  322  215  172  285  293  246  405  224  366
 Reordering of NBOs for storage:   251  425  317  409  346  281  282  337  354  375
 Reordering of NBOs for storage:   365  428  148  181  212  242  271  424  139  161
 Reordering of NBOs for storage:   188  195  191  427  211  158  178  410  154  373
 Reordering of NBOs for storage:   416  274  374  256  151  408  227  237  152  276
 Reordering of NBOs for storage:   140  372  324  407  426  254  245  223  260  323
 Reordering of NBOs for storage:   314  247  417  192  273  216  217  241  253  233
 Reordering of NBOs for storage:   333  313  292  145  343  307  287  363  352  171
 Reordering of NBOs for storage:   295  376  283  267  263  185  165  327  141  294
 Reordering of NBOs for storage:   305  262  345  335  297  334  183  266  243  347
 Reordering of NBOs for storage:   367  418  344  325  213  173  336  316  406  162
 Reordering of NBOs for storage:   163  355  315  357  214  296  244  429  175  182
 Reordering of NBOs for storage:   326  144  377  399  364  257  286  306  277  155
 Reordering of NBOs for storage:   194  226  236  207  387  389  206
 Labels of output orbitals:  CR  CR  CR  CR  CR  CR  CR  CR  CR  CR  CR  CR  CR  CR  CR  CR  CR  CR  CR  CR  
 Labels of output orbitals:  CR  CR  CR  CR  CR  CR  CR  CR  CR  CR  CR  CR  CR  CR  CR  CR  CR  CR  CR  CR  
 Labels of output orbitals:  CR  CR  CR  CR  CR  CR  CR  CR  CR  CR  CR  CR  CR  CR  CR  CR  CR  CR  CR  BD  
 Labels of output orbitals:  BD  LP  LP  BD  BD  BD  BD  BD  BD  BD  BD  BD  BD  BD  BD  BD  LP  LP  BD  BD  
 Labels of output orbitals:  BD  BD  BD  BD  BD  BD  BD  BD  BD  BD  BD  BD  BD  BD  BD  BD  BD  LP  LP  BD  
 Labels of output orbitals:  BD  BD  BD  BD  BD  BD  BD  BD  BD  BD  LP  LP  LP  LP  LP  BD  LP  LP  BD  BD  
 Labels of output orbitals:  BD  LP  LP  LP  LP  LP  LP  LP  LP  LP  BD  BD  BD  BD  BD  BD* BD* BD* BD* BD* 
 Labels of output orbitals:  BD* BD* BD* BD* BD* BD* BD* BD* BD* BD* BD* BD* BD* BD* BD* BD* BD* BD* BD* BD* 
 Labels of output orbitals:  BD* BD* BD* BD* BD* BD* BD* BD* BD* BD* BD* BD* BD* BD* BD* BD* BD* BD* BD* BD* 
 Labels of output orbitals:  BD* BD* BD* BD* BD* BD* BD* BD* BD* RY* RY* RY* RY* RY* RY* RY* RY* RY* RY* RY* 
 Labels of output orbitals:  RY* RY* RY* RY* RY* RY* RY* RY* RY* RY* RY* RY* RY* RY* RY* RY* RY* RY* RY* RY* 
 Labels of output orbitals:  RY* RY* RY* RY* RY* RY* RY* RY* RY* RY* RY* RY* RY* RY* RY* RY* RY* RY* RY* RY* 
 Labels of output orbitals:  RY* RY* RY* RY* RY* RY* RY* RY* RY* RY* RY* RY* RY* RY* RY* RY* RY* RY* RY* RY* 
 Labels of output orbitals:  RY* RY* RY* RY* RY* RY* RY* RY* RY* RY* RY* RY* RY* RY* RY* RY* RY* RY* RY* RY* 
 Labels of output orbitals:  RY* RY* RY* RY* RY* RY* RY* RY* RY* RY* RY* RY* RY* RY* RY* RY* RY* RY* RY* RY* 
 Labels of output orbitals:  RY* RY* RY* RY* RY* RY* RY* RY* RY* RY* RY* RY* RY* RY* RY* RY* RY* RY* RY* RY* 
 Labels of output orbitals:  RY* RY* RY* RY* RY* RY* RY* RY* RY* RY* RY* RY* RY* RY* RY* RY* RY* RY* RY* RY* 
 Labels of output orbitals:  RY* RY* RY* RY* RY* RY* RY* RY* RY* RY* RY* RY* RY* RY* RY* RY* RY* RY* RY* RY* 
 Labels of output orbitals:  RY* RY* RY* RY* RY* RY* RY* RY* RY* RY* RY* RY* RY* RY* RY* RY* RY* RY* RY* RY* 
 Labels of output orbitals:  RY* RY* RY* RY* RY* RY* RY* RY* RY* RY* RY* RY* RY* RY* RY* RY* RY* RY* RY* RY* 
 Labels of output orbitals:  RY* RY* RY* RY* RY* RY* RY* RY* RY* RY* RY* RY* RY* RY* RY* RY* RY* RY* RY* RY* 
 Labels of output orbitals:  RY* RY* RY* RY* RY* RY* RY* RY* RY* RY* RY* RY* RY* RY* RY* RY* RY* RY* RY* RY* 
 Labels of output orbitals:  RY* RY* RY* RY* RY* RY* RY* RY* RY* RY* RY* RY* RY* RY* RY* RY* RY* RY* RY* RY* 
 Labels of output orbitals:  RY* RY* RY* RY* RY* RY* RY* RY* RY* RY* RY* RY* RY* RY* RY* RY* RY* RY* RY* RY* 
 Labels of output orbitals:  RY* RY* RY* RY* RY* RY* RY* RY* RY* RY* RY* RY* RY* RY* RY* RY* RY* 
 1|1|UNPC-DESKTOP-V94OHBB|SP|RB3LYP|6-31G(d)|C16H14Br2N6O4S1|DREAM|08-A
 ug-2024|0||# b3lyp/6-31g(d) scrf=(smd,solvent=dmso) pop=(nbo,savenbos)
 ||Title Card Required||0,1|C,0,-4.49169155,-1.48901199,0.03396679|N,0,
 -5.50855323,-2.36246702,0.04775794|C,0,-6.73197224,-1.83685994,0.05605
 964|C,0,-6.93729233,-0.45567854,0.05035807|C,0,-5.81181635,0.35931955,
 0.0366306|N,0,-4.57763042,-0.15665482,0.02822271|Br,0,-8.69090593,0.28
 027433,0.06058422|O,0,-3.28213867,-2.06653703,0.02386292|C,0,-2.126658
 62,-1.20950059,-0.00651637|C,0,-0.93030017,-2.14730217,-0.02423115|O,0
 ,0.22235343,-1.28362663,-0.0522649|N,0,3.90137584,-2.9943663,-0.133087
 19|C,0,2.76627747,-3.6833545,-0.10148085|N,0,1.53190007,-3.18180028,-0
 .08093249|C,0,1.43791149,-1.84881227,-0.08242091|C,0,2.55200063,-0.984
 96323,-0.09362521|C,0,3.78876779,-1.65235699,-0.12549487|C,0,1.7476515
 2,1.16811406,-1.11025105|C,0,2.41776547,0.49712839,-0.07451992|C,0,2.9
 5784894,1.25380202,0.97829386|C,0,2.83640184,2.64392673,1.0000231|C,0,
 2.16430903,3.27861857,-0.04118154|C,0,1.61595928,2.55543598,-1.0991584
 9|N,0,4.97813741,-0.94416609,-0.20631131|Br,0,1.98813904,5.18787471,-0
 .01917916|S,0,6.50697444,-1.5523046,0.18541346|O,0,7.42035326,-0.43600
 455,-0.04857643|O,0,6.47433124,-2.18080032,1.50754425|N,0,6.71240253,-
 2.66865765,-1.05015447|H,0,-7.56886384,-2.5315364,0.06704211|H,0,-5.89
 350857,1.44346711,0.0321411|H,0,-2.14820511,-0.58025206,-0.90120565|H,
 0,-2.11003398,-0.56499889,0.87724739|H,0,-0.90638535,-2.77720816,0.869
 53411|H,0,-0.94282535,-2.78889727,-0.90968701|H,0,2.85458035,-4.766772
 7,-0.09945853|H,0,1.32581565,0.6042288,-1.93635073|H,0,3.47007779,0.75
 710436,1.79741338|H,0,3.25548354,3.21477862,1.82165617|H,0,1.09636571,
 3.06065821,-1.90623147|H,0,4.95991513,0.06778995,-0.29372422|H,0,5.983
 93628,-3.38424019,-0.94482757|H,0,7.63530421,-3.10096137,-0.95104499||
 Version=IA32W-G09RevD.01|State=1-A|HF=-6789.1081606|RMSD=4.179e-009|Di
 pole=-1.3931215,-0.3949055,-0.8698346|Quadrupole=-12.4442754,5.5339364
 ,6.9103389,-12.9856091,-7.3474811,5.2909226|PG=C01 [X(C16H14Br2N6O4S1)
 ]||@


 READER, WHETHER YOU BE DILETTANTE OR PROFESSOR ... SHOW YOURSELF TO BE
 MORE HUMAN THAN CRITICAL, AND THEN YOUR PLEASURE WILL INCREASE.
                                           -- DOMENICO SCARLATTI (1738)
 Job cpu time:       0 days  0 hours 12 minutes  2.0 seconds.
 File lengths (MBytes):  RWF=    417 Int=      0 D2E=      0 Chk=     11 Scr=      1
 Normal termination of Gaussian 09 at Thu Aug 08 07:16:55 2024.


