 Entering Link 1 = C:|G09W|l1.exe PID=     10900.
  
 Copyright (c) 1988,1990,1992,1993,1995,1998,2003,2009,2013,
            Gaussian, Inc.  All Rights Reserved.
  
 This is part of the Gaussian(R) 09 program.  It is based on
 the Gaussian(R) 03 system (copyright 2003, Gaussian, Inc.),
 the Gaussian(R) 98 system (copyright 1998, Gaussian, Inc.),
 the Gaussian(R) 94 system (copyright 1995, Gaussian, Inc.),
 the Gaussian 92(TM) system (copyright 1992, Gaussian, Inc.),
 the Gaussian 90(TM) system (copyright 1990, Gaussian, Inc.),
 the Gaussian 88(TM) system (copyright 1988, Gaussian, Inc.),
 the Gaussian 86(TM) system (copyright 1986, Carnegie Mellon
 University), and the Gaussian 82(TM) system (copyright 1983,
 Carnegie Mellon University). Gaussian is a federally registered
 trademark of Gaussian, Inc.
  
 This software contains proprietary and confidential information,
 including trade secrets, belonging to Gaussian, Inc.
  
 This software is provided under written license and may be
 used, copied, transmitted, or stored only in accord with that
 written license.
  
 The following legend is applicable only to US Government
 contracts under FAR:
  
                    RESTRICTED RIGHTS LEGEND
  
 Use, reproduction and disclosure by the US Government is
 subject to restrictions as set forth in subparagraphs (a)
 and (c) of the Commercial Computer Software - Restricted
 Rights clause in FAR 52.227-19.
  
 Gaussian, Inc.
 340 Quinnipiac St., Bldg. 40, Wallingford CT 06492
  
  
 ---------------------------------------------------------------
 Warning -- This program may not be used in any manner that
 competes with the business of Gaussian, Inc. or will provide
 assistance to any competitor of Gaussian, Inc.  The licensee
 of this program is prohibited from giving any competitor of
 Gaussian, Inc. access to this program.  By using this program,
 the user acknowledges that Gaussian, Inc. is engaged in the
 business of creating and licensing software in the field of
 computational chemistry and represents and warrants to the
 licensee that it is not a competitor of Gaussian, Inc. and that
 it will not use this program in any manner prohibited above.
 ---------------------------------------------------------------
  

 Cite this work as:
 Gaussian 09, Revision D.01,
 M. J. Frisch, G. W. Trucks, H. B. Schlegel, G. E. Scuseria, 
 M. A. Robb, J. R. Cheeseman, G. Scalmani, V. Barone, B. Mennucci, 
 G. A. Petersson, H. Nakatsuji, M. Caricato, X. Li, H. P. Hratchian, 
 A. F. Izmaylov, J. Bloino, G. Zheng, J. L. Sonnenberg, M. Hada, 
 M. Ehara, K. Toyota, R. Fukuda, J. Hasegawa, M. Ishida, T. Nakajima, 
 Y. Honda, O. Kitao, H. Nakai, T. Vreven, J. A. Montgomery, Jr., 
 J. E. Peralta, F. Ogliaro, M. Bearpark, J. J. Heyd, E. Brothers, 
 K. N. Kudin, V. N. Staroverov, T. Keith, R. Kobayashi, J. Normand, 
 K. Raghavachari, A. Rendell, J. C. Burant, S. S. Iyengar, J. Tomasi, 
 M. Cossi, N. Rega, J. M. Millam, M. Klene, J. E. Knox, J. B. Cross, 
 V. Bakken, C. Adamo, J. Jaramillo, R. Gomperts, R. E. Stratmann, 
 O. Yazyev, A. J. Austin, R. Cammi, C. Pomelli, J. W. Ochterski, 
 R. L. Martin, K. Morokuma, V. G. Zakrzewski, G. A. Voth, 
 P. Salvador, J. J. Dannenberg, S. Dapprich, A. D. Daniels, 
 O. Farkas, J. B. Foresman, J. V. Ortiz, J. Cioslowski, 
 and D. J. Fox, Gaussian, Inc., Wallingford CT, 2013.
 
 ******************************************
 Gaussian 09:  IA32W-G09RevD.01 24-Apr-2013
                31-Aug-2024 
 ******************************************
 %nprocshared=4
 Will use up to    4 processors via shared memory.
 %mem=150MW
 %chk=C:|Users|DREAM|Desktop|paper|NBo +1.chk
 ------------------------
 # b3lyp/6-31g(d) pop=nbo
 ------------------------
 1/38=1/1;
 2/12=2,17=6,18=5,40=1/2;
 3/5=1,6=6,7=1,11=2,16=1,25=1,30=1,74=-5/1,2,3;
 4//1;
 5/5=2,38=5/2;
 6/7=2,8=2,9=2,10=2,28=1,40=1/1,7;
 99/5=1,9=1/99;
 -------------------
 Title Card Required
 -------------------
 Symbolic Z-matrix:
 Charge =  1 Multiplicity = 2
 C                    -2.38411  -0.66225   0. 
 N                    -2.38411  -0.66225   1.34057 
 C                    -1.18823  -0.66225   1.92619 
 C                    -0.00672  -0.66196   1.18196 
 C                    -0.12183  -0.6627   -0.20291 
 N                    -1.31742  -0.66274  -0.80298 
 Br                    1.69419  -0.66019   2.03272 
 O                    -3.61034  -0.66005  -0.5413 
 C                    -3.71315  -0.64463  -1.97648 
 C                    -5.2041   -0.63281  -2.27311 
 O                    -5.30002  -0.61974  -3.71045 
 N                    -8.99507  -0.5632   -5.38729 
 C                    -8.77806  -0.58092  -4.07705 
 N                    -7.59326  -0.59294  -3.46731 
 C                    -6.52084  -0.59761  -4.26455 
 C                    -6.59148  -0.60102  -5.67259 
 C                    -7.90366  -0.57683  -6.17619 
 C                    -4.43603   0.4115   -6.47577 
 C                    -5.37969  -0.62671  -6.53623 
 C                    -5.15559  -1.68833  -7.42809 
 C                    -4.02189  -1.71627  -8.24149 
 C                    -3.10449  -0.67238  -8.15593 
 C                    -3.29781   0.3943   -7.27968 
 N                    -8.14155  -0.5105   -7.54063 
 Br                   -1.54133  -0.70283  -9.26606 
 S                    -9.59828  -0.91284  -8.30003 
 O                    -9.34706  -0.69299  -9.72259 
 O                    -10.05126  -2.23129  -7.85217 
 N                    -10.58133   0.32668  -7.7412 
 H                    -1.16988  -0.66201   3.01373 
 H                     0.75381  -0.66317  -0.84737 
 H                    -3.22347   0.24689  -2.37934 
 H                    -3.23339  -1.53189  -2.39993 
 H                    -5.69581  -1.52343  -1.87164 
 H                    -5.68432   0.25609  -1.85468 
 H                    -9.65745  -0.57804  -3.4381 
 H                    -4.5905    1.24433  -5.79689 
 H                    -5.86457  -2.50942  -7.48458 
 H                    -3.86035  -2.54465  -8.92286 
 H                    -2.57754   1.20337  -7.22304 
 H                    -7.36219  -0.42825  -8.18705 
 H                    -10.64931   0.23171  -6.72131 
 H                    -11.51042   0.2215   -8.15856 
 
                          Input orientation:                          
 ---------------------------------------------------------------------
 Center     Atomic      Atomic             Coordinates (Angstroms)
 Number     Number       Type             X           Y           Z
 ---------------------------------------------------------------------
      1          6           0       -2.384106   -0.662252    0.000000
      2          7           0       -2.384106   -0.662252    1.340568
      3          6           0       -1.188225   -0.662252    1.926191
      4          6           0       -0.006715   -0.661957    1.181957
      5          6           0       -0.121830   -0.662695   -0.202909
      6          7           0       -1.317419   -0.662737   -0.802977
      7         35           0        1.694195   -0.660192    2.032717
      8          8           0       -3.610339   -0.660051   -0.541297
      9          6           0       -3.713146   -0.644631   -1.976484
     10          6           0       -5.204096   -0.632806   -2.273110
     11          8           0       -5.300020   -0.619741   -3.710455
     12          7           0       -8.995068   -0.563202   -5.387295
     13          6           0       -8.778061   -0.580917   -4.077048
     14          7           0       -7.593263   -0.592937   -3.467315
     15          6           0       -6.520844   -0.597609   -4.264553
     16          6           0       -6.591477   -0.601025   -5.672585
     17          6           0       -7.903657   -0.576833   -6.176195
     18          6           0       -4.436033    0.411498   -6.475771
     19          6           0       -5.379688   -0.626709   -6.536233
     20          6           0       -5.155589   -1.688329   -7.428087
     21          6           0       -4.021892   -1.716269   -8.241487
     22          6           0       -3.104490   -0.672380   -8.155933
     23          6           0       -3.297807    0.394302   -7.279682
     24          7           0       -8.141553   -0.510502   -7.540625
     25         35           0       -1.541332   -0.702828   -9.266063
     26         16           0       -9.598281   -0.912835   -8.300029
     27          8           0       -9.347056   -0.692990   -9.722594
     28          8           0      -10.051260   -2.231294   -7.852166
     29          7           0      -10.581331    0.326678   -7.741197
     30          1           0       -1.169876   -0.662011    3.013733
     31          1           0        0.753805   -0.663168   -0.847372
     32          1           0       -3.223474    0.246895   -2.379335
     33          1           0       -3.233388   -1.531886   -2.399931
     34          1           0       -5.695812   -1.523426   -1.871637
     35          1           0       -5.684324    0.256088   -1.854684
     36          1           0       -9.657455   -0.578040   -3.438100
     37          1           0       -4.590502    1.244333   -5.796891
     38          1           0       -5.864571   -2.509424   -7.484576
     39          1           0       -3.860352   -2.544649   -8.922863
     40          1           0       -2.577537    1.203373   -7.223038
     41          1           0       -7.362194   -0.428251   -8.187049
     42          1           0      -10.649309    0.231708   -6.721307
     43          1           0      -11.510420    0.221500   -8.158556
 ---------------------------------------------------------------------
                    Distance matrix (angstroms):
                    1          2          3          4          5
     1  C    0.000000
     2  N    1.340568   0.000000
     3  C    2.267233   1.331573   0.000000
     4  C    2.654997   2.382676   1.396371   0.000000
     5  C    2.271358   2.738652   2.381233   1.389643   0.000000
     6  N    1.335138   2.394286   2.732225   2.378636   1.337728
     7  Br   4.556806   4.136619   2.884389   1.901813   2.880274
     8  O    1.340394   2.246123   3.457621   3.994461   3.504884
     9  C    2.381837   3.573442   4.648269   4.869669   4.005427
    10  C    3.622187   4.583872   5.810527   6.241082   5.487810
    11  O    4.719305   5.832426   6.977137   7.208090   6.254469
    12  N    8.528633   9.432856  10.697836  11.133522  10.277262
    13  C    7.583640   8.380921   9.677350  10.227425   9.483986
    14  N    6.257986   7.089136   8.373722   8.898101   8.153743
    15  C    5.941649   6.966646   8.171066   8.491319   7.579484
    16  C    7.062857   8.178633   9.324177   9.505133   8.472160
    17  C    8.283605   9.326009  10.523924  10.794041   9.810420
    18  C    6.877424   8.152208   9.071613   8.911339   7.688631
    19  C    7.190071   8.427263   9.443636   9.404283   8.231486
    20  C    7.994400   9.253284  10.212509  10.084503   8.865318
    21  C    8.468495   9.777989  10.607653  10.297306   8.996623
    22  C    8.187691   9.523790  10.262621   9.838318   8.493935
    23  C    7.412485   8.732689   9.503407   9.140367   7.828461
    24  N    9.488533  10.585217  11.747017  11.928200  10.871118
    25  Br   9.304399  10.640138  11.197897  10.560201   9.173732
    26  S   10.999891  12.043597  13.242636  13.489594  12.467119
    27  O   11.958781  13.071999  14.221873  14.358000  13.256324
    28  O   11.086192  12.072841  13.290280  13.600407  12.631913
    29  N   11.318066  12.273994  13.515429  13.871646  12.930808
    30  H    3.249145   2.067326   1.087696   2.169873   3.383074
    31  H    3.250312   3.825385   3.385873   2.167157   1.087230
    32  H    2.681850   3.920301   4.848334   4.884296   3.896714
    33  H    2.690207   3.933049   4.863568   4.898788   3.906942
    34  H    3.900262   4.693322   5.956799   6.514015   5.881733
    35  H    3.895463   4.684487   5.945861   6.503786   5.874850
    36  H    8.045448   8.703124  10.025496  10.699942  10.069845
    37  H    6.489006   7.710160   8.651968   8.564425   7.409347
    38  H    8.458401   9.664825  10.669714  10.622448   9.455800
    39  H    9.237976  10.538535  11.330739  10.977360   9.672429
    40  H    7.462590   8.766602   9.440294   8.985128   7.667785
    41  H    9.584565  10.752283  11.851172  11.913688  10.780739
    42  H   10.690590  11.580439  12.848754  13.286272  12.414398
    43  H   12.273250  13.202423  14.457899  14.844558  13.920277
                    6          7          8          9         10
     6  N    0.000000
     7  Br   4.136543   0.000000
     8  O    2.307806   5.896069   0.000000
     9  C    2.667762   6.731514   1.438947   0.000000
    10  C    4.155532   8.131871   2.353716   1.520217   0.000000
    11  O    4.931165   9.050122   3.591686   2.350627   1.440601
    12  N    8.942716  13.012545   7.244887   6.288002   4.906573
    13  C    8.147847  12.124507   6.262040   5.483593   4.003762
    14  N    6.818342  10.794061   4.942647   4.156989   2.671298
    15  C    6.249991  10.351155   4.726264   3.622243   2.387658
    16  C    7.178620  11.314926   5.934710   4.684854   3.671821
    17  C    8.500434  12.629804   7.084601   5.933173   4.746033
    18  C    6.562037  10.541470   6.086704   4.677773   4.398051
    19  C    7.026632  11.111609   6.250677   4.854791   4.266742
    20  C    7.724990  11.725333   7.132534   5.734974   5.262154
    21  C    7.984706  11.804585   7.783180   6.363489   6.180050
    22  C    7.567012  11.262154   7.631429   6.209414   6.246400
    23  C    6.854705  10.618514   6.827531   5.419945   5.454782
    24  N    9.591031  13.726370   8.339356   7.112556   6.032439
    25  Br   8.466143  11.752996   8.966837   7.606453   7.894437
    26  S   11.173227  15.308478   9.803941   8.642567   7.463982
    27  O   12.001481  16.127543  10.826228   9.578387   8.524233
    28  O   11.332758  15.431623   9.869299   8.787083   7.561483
    29  N   11.616277  15.722336  10.070100   9.019275   7.728857
    30  H    3.819561   3.027425   4.312088   5.600963   6.650300
    31  H    2.071700   3.029729   4.374866   4.607482   6.126193
    32  H    2.635409   6.668769   2.085809   1.094023   2.169798
    33  H    2.641329   6.685006   2.087274   1.093937   2.169820
    34  H    4.588371   8.402462   2.620003   2.171230   1.093695
    35  H    4.584777   8.390113   2.620249   2.170639   1.093542
    36  H    8.746842  12.601450   6.705654   6.121729   4.603543
    37  H    6.268107  10.218973   5.675268   4.351259   4.039453
    38  H    8.290392  12.293635   7.530661   6.200416   5.578288
    39  H    8.714393  12.426943   8.594467   7.203049   7.048404
    40  H    6.803488  10.362895   7.013180   5.677240   5.896792
    41  H    9.545617  13.657071   8.519839   7.206489   6.298722
    42  H   11.086515  15.158843   9.409296   8.449359   7.084079
    43  H   12.600940  16.703332  11.009588   9.988277   8.668219
                   11         12         13         14         15
    11  O    0.000000
    12  N    4.058124   0.000000
    13  C    3.497523   1.328214   0.000000
    14  N    2.306252   2.377450   1.332541   0.000000
    15  C    1.340867   2.717263   2.265053   1.336298   0.000000
    16  C    2.349078   2.420758   2.706897   2.422160   1.409807
    17  C    3.586173   1.346747   2.273986   2.726653   2.359444
    18  C    3.075208   4.787444   5.058850   4.475243   3.202221
    19  C    2.826910   3.794083   4.195071   3.784087   2.542364
    20  C    3.870857   4.491363   5.057482   4.778060   3.614075
    21  C    4.833863   5.848800   6.422828   6.067066   4.828267
    22  C    4.958366   6.509699   6.988209   6.491420   5.178793
    23  C    4.216222   6.079205   6.421923   5.827498   4.523589
    24  N    4.770372   2.316916   3.522281   4.110873   3.656082
    25  Br   6.708161   8.403720   8.905671   8.382328   7.058450
    26  S    6.294850   2.995017   4.314684   5.241904   5.084786
    27  O    7.247736   4.351501   5.675253   6.497255   6.147095
    28  O    6.505778   3.158110   4.312342   5.287049   5.291855
    29  N    6.710800   2.974722   4.183479   5.295310   5.424842
    30  H    7.891424  11.481318  10.400492   9.125165   9.033850
    31  H    6.696860  10.754600  10.064494   8.748861   8.037534
    32  H    2.614380   6.558611   5.866936   4.580838   3.891001
    33  H    2.611599   6.561985   5.870304   4.585787   3.893207
    34  H    2.086756   4.915992   3.905435   2.648078   2.695156
    35  H    2.087739   4.910357   3.900089   2.639218   2.689988
    36  H    4.366137   2.058722   1.087013   2.064452   3.243722
    37  H    2.886418   4.778614   4.881091   4.221263   3.076854
    38  H    4.258357   4.241036   4.880452   4.774902   3.801878
    39  H    5.739957   6.541535   7.177884   6.892518   5.706928
    40  H    4.803530   6.904741   7.178261   6.518412   5.248413
    41  H    4.932456   3.243934   4.349723   4.728256   4.015286
    42  H    6.197183   2.268916   3.339765   4.539595   4.875205
    43  H    7.685203   3.823956   4.976782   6.165645   6.382011
                   16         17         18         19         20
    16  C    0.000000
    17  C    1.405711   0.000000
    18  C    2.513215   3.618143   0.000000
    19  C    1.488281   2.550007   1.404284   0.000000
    20  C    2.515113   3.217846   2.415355   1.404515   0.000000
    21  C    3.800762   4.542229   2.795829   2.436933   1.395589
    22  C    4.281493   5.192350   2.402237   2.793213   2.401857
    23  C    3.797591   4.834733   1.393603   2.435037   2.794768
    24  N    2.429095   1.386602   3.964199   2.941123   3.211840
    25  Br   6.198985   7.074061   4.172139   4.710705   4.172795
    26  S    4.005191   2.737759   5.632990   4.581416   4.593385
    27  O    4.899412   3.830645   5.989983   5.088938   4.880969
    28  O    4.402096   3.187212   6.356853   5.111747   4.943910
    29  N    4.588978   3.230403   6.274805   5.423834   5.796289
    30  H   10.239609  11.393236  10.093111  10.436743  11.223674
    31  H    8.788613  10.166388   7.730990   8.365657   8.903803
    32  H    4.786221   6.082663   4.275299   4.763638   5.741782
    33  H    4.780537   6.081423   4.672854   4.747098   5.385321
    34  H    4.012512   4.929486   5.150634   4.760514   5.585085
    35  H    4.016708   4.928961   4.789241   4.773787   5.926479
    36  H    3.793899   3.251610   6.121264   5.282053   6.117151
    37  H    2.724830   3.799673   1.085520   2.161074   3.403033
    38  H    2.730145   3.099136   3.404437   2.163119   1.086298
    39  H    4.669157   5.269231   3.880525   3.418023   2.155290
    40  H    4.665990   5.712492   2.153946   3.416570   3.879476
    41  H    2.635599   2.087772   3.492287   2.587452   2.651966
    42  H    4.273085   2.913673   6.220724   5.342287   5.862341
    43  H    5.572485   4.192354   7.274256   6.398223   6.675695
                   21         22         23         24         25
    21  C    0.000000
    22  C    1.392354   0.000000
    23  C    2.429789   1.393914   0.000000
    24  N    4.349331   5.077087   4.934433   0.000000
    25  Br   2.868797   1.917493   2.869600   6.824737   0.000000
    26  S    5.634275   6.499839   6.515035   1.691338   8.117373
    27  O    5.621223   6.436185   6.613882   2.499505   7.819069
    28  O    6.063835   7.126016   7.268467   2.589433   8.760946
    29  N    6.888408   7.554686   7.298444   2.587203   9.225328
    30  H   11.658706  11.335972  10.564009  12.649969  12.285481
    31  H    8.865057   8.264477   7.675182  11.133299   8.726030
    32  H    6.233483   5.850496   4.903127   7.169384   7.152524
    33  H    5.897415   5.821247   5.246553   7.180532   7.119983
    34  H    6.588944   6.850665   6.218928   6.256604   8.521187
    35  H    6.888042   6.871924   5.928337   6.241440   8.544732
    36  H    7.491839   8.075159   7.493218   4.374155   9.992606
    37  H    3.881305   3.383356   2.142961   4.327819   5.012388
    38  H    2.144172   3.382824   3.880964   3.030425   5.012771
    39  H    1.084704   2.159838   3.413785   4.937308   2.981266
    40  H    3.412874   2.160190   1.084709   5.830652   2.980147
    41  H    3.580443   4.264811   4.244897   1.015888   5.926390
    42  H    7.073063   7.733034   7.374469   2.740620   9.502861
    43  H    7.735623   8.453324   8.261312   3.502418  10.072917
                   26         27         28         29         30
    26  S    0.000000
    27  O    1.461211   0.000000
    28  O    1.464275   2.522059   0.000000
    29  N    1.677818   2.547370   2.614671   0.000000
    30  H   14.110355  15.135430  14.121239  14.325554   0.000000
    31  H   12.758139  13.446109  12.972108  13.303756   4.313779
    32  H    8.777116   9.607554   9.094612   9.104614   5.841965
    33  H    8.700933   9.576120   8.757820   9.272305   5.858543
    34  H    7.544953   8.698203   7.432209   7.857666   6.715130
    35  H    7.630722   8.730428   7.824768   7.657461   6.702583
    36  H    4.873801   6.293205   4.729937   4.493184  10.661716
    37  H    5.999744   6.464454   6.791466   6.364939   9.641677
    38  H    4.141818   4.520604   4.211988   5.509733  11.647642
    39  H    5.997880   5.845693   6.290622   7.403540  12.380036
    40  H    7.411416   7.461257   8.249198   8.068321  10.500126
    41  H    2.290780   2.523423   3.254871   3.336397  12.800662
    42  H    2.215175   3.399802   2.775407   1.026555  13.617245
    43  H    2.227780   2.821816   2.870403   1.023942  15.248852
                   31         32         33         34         35
    31  H    0.000000
    32  H    4.358196   0.000000
    33  H    4.366099   1.778928   0.000000
    34  H    6.586860   3.082897   2.518472   0.000000
    35  H    6.580974   2.516173   3.082407   1.779633   0.000000
    36  H   10.729094   6.572489   6.576949   4.363734   4.357608
    37  H    7.529802   3.813573   4.592221   4.928471   4.208809
    38  H    9.553221   6.374651   5.807952   5.701382   6.275049
    39  H    9.489150   7.142555   6.630792   7.357418   7.818578
    40  H    7.431752   4.979312   5.583381   6.767316   6.274448
    41  H   10.945112   7.163405   7.194149   6.622739   6.586533
    42  H   12.858263   8.602091   8.762444   7.151009   6.952388
    43  H   14.305498  10.103144  10.234519   8.739553   8.583904
                   36         37         38         39         40
    36  H    0.000000
    37  H    5.878686   0.000000
    38  H    5.872834   4.308390   0.000000
    39  H    8.219280   4.966005   2.467144   0.000000
    40  H    8.223407   2.467306   4.965668   4.310764   0.000000
    41  H    5.276663   4.024011   2.658501   4.157338   5.146305
    42  H    3.524048   6.212012   5.566876   7.657998   8.145512
    43  H    5.133756   7.383015   6.307758   8.170635   9.035245
                   41         42         43
    41  H    0.000000
    42  H    3.659107   0.000000
    43  H    4.198900   1.675500   0.000000
 Stoichiometry    C16H14Br2N6O4S(1+,2)
 Framework group  C1[X(C16H14Br2N6O4S)]
 Deg. of freedom   123
 Full point group                 C1      NOp   1
 Largest Abelian subgroup         C1      NOp   1
 Largest concise Abelian subgroup C1      NOp   1
                         Standard orientation:                         
 ---------------------------------------------------------------------
 Center     Atomic      Atomic             Coordinates (Angstroms)
 Number     Number       Type             X           Y           Z
 ---------------------------------------------------------------------
      1          6           0       -4.491692   -1.489012    0.033967
      2          7           0       -5.508553   -2.362467    0.047758
      3          6           0       -6.731972   -1.836860    0.056060
      4          6           0       -6.937292   -0.455679    0.050358
      5          6           0       -5.811816    0.359320    0.036631
      6          7           0       -4.577630   -0.156655    0.028223
      7         35           0       -8.690906    0.280274    0.060584
      8          8           0       -3.282139   -2.066537    0.023863
      9          6           0       -2.126659   -1.209501   -0.006516
     10          6           0       -0.930300   -2.147302   -0.024231
     11          8           0        0.222353   -1.283627   -0.052265
     12          7           0        3.901376   -2.994366   -0.133087
     13          6           0        2.766277   -3.683354   -0.101481
     14          7           0        1.531900   -3.181800   -0.080932
     15          6           0        1.437911   -1.848812   -0.082421
     16          6           0        2.552001   -0.984963   -0.093625
     17          6           0        3.788768   -1.652357   -0.125495
     18          6           0        1.747652    1.168114   -1.110251
     19          6           0        2.417765    0.497128   -0.074520
     20          6           0        2.957849    1.253802    0.978294
     21          6           0        2.836402    2.643927    1.000023
     22          6           0        2.164309    3.278619   -0.041182
     23          6           0        1.615959    2.555436   -1.099158
     24          7           0        4.978137   -0.944166   -0.206311
     25         35           0        1.988139    5.187875   -0.019179
     26         16           0        6.506974   -1.552305    0.185413
     27          8           0        7.420353   -0.436005   -0.048576
     28          8           0        6.474331   -2.180800    1.507544
     29          7           0        6.712403   -2.668658   -1.050154
     30          1           0       -7.568864   -2.531536    0.067042
     31          1           0       -5.893509    1.443467    0.032141
     32          1           0       -2.148205   -0.580252   -0.901206
     33          1           0       -2.110034   -0.564999    0.877247
     34          1           0       -0.906385   -2.777208    0.869534
     35          1           0       -0.942825   -2.788897   -0.909687
     36          1           0        2.854580   -4.766773   -0.099459
     37          1           0        1.325816    0.604229   -1.936351
     38          1           0        3.470078    0.757104    1.797413
     39          1           0        3.255484    3.214779    1.821656
     40          1           0        1.096366    3.060658   -1.906231
     41          1           0        4.959915    0.067790   -0.293724
     42          1           0        5.983936   -3.384240   -0.944828
     43          1           0        7.635304   -3.100961   -0.951045
 ---------------------------------------------------------------------
 Rotational constants (GHZ):      0.1340594      0.0354273      0.0284219
 Standard basis: 6-31G(d) (6D, 7F)
 There are   497 symmetry adapted cartesian basis functions of A   symmetry.
 There are   497 symmetry adapted basis functions of A   symmetry.
   497 basis functions,  1002 primitive gaussians,   497 cartesian basis functions
   135 alpha electrons      134 beta electrons
       nuclear repulsion energy      3616.9196447991 Hartrees.
 NAtoms=   43 NActive=   43 NUniq=   43 SFac= 1.00D+00 NAtFMM=   60 NAOKFM=F Big=F
 Integral buffers will be    262144 words long.
 Raffenetti 2 integral format.
 Two-electron integral symmetry is turned on.
 One-electron integrals computed using PRISM.
 NBasis=   497 RedAO= T EigKep=  4.35D-04  NBF=   497
 NBsUse=   497 1.00D-06 EigRej= -1.00D+00 NBFU=   497
 ExpMin= 1.17D-01 ExpMax= 5.74D+05 ExpMxC= 5.74D+03 IAcc=2 IRadAn=         4 AccDes= 0.00D+00
 Harris functional with IExCor=  402 and IRadAn=       4 diagonalized for initial guess.
 HarFok:  IExCor=  402 AccDes= 0.00D+00 IRadAn=         4 IDoV= 1 UseB2=F ITyADJ=14
 ICtDFT=  3500011 ScaDFX=  1.000000  1.000000  1.000000  1.000000
 FoFCou: FMM=F IPFlag=           0 FMFlag=      100000 FMFlg1=           0
         NFxFlg=           0 DoJE=T BraDBF=F KetDBF=T FulRan=T
         wScrn=  0.000000 ICntrl=     500 IOpCl=  0 I1Cent=   200000004 NGrid=           0
         NMat0=    1 NMatS0=      1 NMatT0=    0 NMatD0=    1 NMtDS0=    0 NMtDT0=    0
 Petite list used in FoFCou.
 Initial guess <Sx>= 0.0000 <Sy>= 0.0000 <Sz>= 0.5000 <S**2>= 0.7500 S= 0.5000
 Requested convergence on RMS density matrix=1.00D-08 within 128 cycles.
 Requested convergence on MAX density matrix=1.00D-06.
 Requested convergence on             energy=1.00D-06.
 No special actions if energy rises.
 Integral accuracy reduced to 1.0D-05 until final iterations.
 EnCoef did     4 forward-backward iterations
 EnCoef did     7 forward-backward iterations
 EnCoef did     6 forward-backward iterations
 EnCoef did     5 forward-backward iterations
 EnCoef did     5 forward-backward iterations
 Initial convergence to 1.0D-05 achieved.  Increase integral accuracy.
 EnCoef did     6 forward-backward iterations
 Rare condition: small coef for last iteration:  0.000D+00
 EnCoef did     2 forward-backward iterations
 SCF Done:  E(UB3LYP) =  -6788.77581144     A.U. after   29 cycles
            NFock= 29  Conv=0.90D-08     -V/T= 2.0066
 <Sx>= 0.0000 <Sy>= 0.0000 <Sz>= 0.5000 <S**2>= 0.7536 S= 0.5018
 <L.S>= 0.000000000000E+00
 Annihilation of the first spin contaminant:
 S**2 before annihilation     0.7536,   after     0.7500

 **********************************************************************

            Population analysis using the SCF density.

 **********************************************************************

 Orbital symmetries:
 Alpha Orbitals:
       Occupied  (A) (A) (A) (A) (A) (A) (A) (A) (A) (A) (A) (A)
                 (A) (A) (A) (A) (A) (A) (A) (A) (A) (A) (A) (A)
                 (A) (A) (A) (A) (A) (A) (A) (A) (A) (A) (A) (A)
                 (A) (A) (A) (A) (A) (A) (A) (A) (A) (A) (A) (A)
                 (A) (A) (A) (A) (A) (A) (A) (A) (A) (A) (A) (A)
                 (A) (A) (A) (A) (A) (A) (A) (A) (A) (A) (A) (A)
                 (A) (A) (A) (A) (A) (A) (A) (A) (A) (A) (A) (A)
                 (A) (A) (A) (A) (A) (A) (A) (A) (A) (A) (A) (A)
                 (A) (A) (A) (A) (A) (A) (A) (A) (A) (A) (A) (A)
                 (A) (A) (A) (A) (A) (A) (A) (A) (A) (A) (A) (A)
                 (A) (A) (A) (A) (A) (A) (A) (A) (A) (A) (A) (A)
                 (A) (A) (A)
       Virtual   (A) (A) (A) (A) (A) (A) (A) (A) (A) (A) (A) (A)
                 (A) (A) (A) (A) (A) (A) (A) (A) (A) (A) (A) (A)
                 (A) (A) (A) (A) (A) (A) (A) (A) (A) (A) (A) (A)
                 (A) (A) (A) (A) (A) (A) (A) (A) (A) (A) (A) (A)
                 (A) (A) (A) (A) (A) (A) (A) (A) (A) (A) (A) (A)
                 (A) (A) (A) (A) (A) (A) (A) (A) (A) (A) (A) (A)
                 (A) (A) (A) (A) (A) (A) (A) (A) (A) (A) (A) (A)
                 (A) (A) (A) (A) (A) (A) (A) (A) (A) (A) (A) (A)
                 (A) (A) (A) (A) (A) (A) (A) (A) (A) (A) (A) (A)
                 (A) (A) (A) (A) (A) (A) (A) (A) (A) (A) (A) (A)
                 (A) (A) (A) (A) (A) (A) (A) (A) (A) (A) (A) (A)
                 (A) (A) (A) (A) (A) (A) (A) (A) (A) (A) (A) (A)
                 (A) (A) (A) (A) (A) (A) (A) (A) (A) (A) (A) (A)
                 (A) (A) (A) (A) (A) (A) (A) (A) (A) (A) (A) (A)
                 (A) (A) (A) (A) (A) (A) (A) (A) (A) (A) (A) (A)
                 (A) (A) (A) (A) (A) (A) (A) (A) (A) (A) (A) (A)
                 (A) (A) (A) (A) (A) (A) (A) (A) (A) (A) (A) (A)
                 (A) (A) (A) (A) (A) (A) (A) (A) (A) (A) (A) (A)
                 (A) (A) (A) (A) (A) (A) (A) (A) (A) (A) (A) (A)
                 (A) (A) (A) (A) (A) (A) (A) (A) (A) (A) (A) (A)
                 (A) (A) (A) (A) (A) (A) (A) (A) (A) (A) (A) (A)
                 (A) (A) (A) (A) (A) (A) (A) (A) (A) (A) (A) (A)
                 (A) (A) (A) (A) (A) (A) (A) (A) (A) (A) (A) (A)
                 (A) (A) (A) (A) (A) (A) (A) (A) (A) (A) (A) (A)
                 (A) (A) (A) (A) (A) (A) (A) (A) (A) (A) (A) (A)
                 (A) (A) (A) (A) (A) (A) (A) (A) (A) (A) (A) (A)
                 (A) (A) (A) (A) (A) (A) (A) (A) (A) (A) (A) (A)
                 (A) (A) (A) (A) (A) (A) (A) (A) (A) (A) (A) (A)
                 (A) (A) (A) (A) (A) (A) (A) (A) (A) (A) (A) (A)
                 (A) (A) (A) (A) (A) (A) (A) (A) (A) (A) (A) (A)
                 (A) (A)
 Beta  Orbitals:
       Occupied  (A) (A) (A) (A) (A) (A) (A) (A) (A) (A) (A) (A)
                 (A) (A) (A) (A) (A) (A) (A) (A) (A) (A) (A) (A)
                 (A) (A) (A) (A) (A) (A) (A) (A) (A) (A) (A) (A)
                 (A) (A) (A) (A) (A) (A) (A) (A) (A) (A) (A) (A)
                 (A) (A) (A) (A) (A) (A) (A) (A) (A) (A) (A) (A)
                 (A) (A) (A) (A) (A) (A) (A) (A) (A) (A) (A) (A)
                 (A) (A) (A) (A) (A) (A) (A) (A) (A) (A) (A) (A)
                 (A) (A) (A) (A) (A) (A) (A) (A) (A) (A) (A) (A)
                 (A) (A) (A) (A) (A) (A) (A) (A) (A) (A) (A) (A)
                 (A) (A) (A) (A) (A) (A) (A) (A) (A) (A) (A) (A)
                 (A) (A) (A) (A) (A) (A) (A) (A) (A) (A) (A) (A)
                 (A) (A)
       Virtual   (A) (A) (A) (A) (A) (A) (A) (A) (A) (A) (A) (A)
                 (A) (A) (A) (A) (A) (A) (A) (A) (A) (A) (A) (A)
                 (A) (A) (A) (A) (A) (A) (A) (A) (A) (A) (A) (A)
                 (A) (A) (A) (A) (A) (A) (A) (A) (A) (A) (A) (A)
                 (A) (A) (A) (A) (A) (A) (A) (A) (A) (A) (A) (A)
                 (A) (A) (A) (A) (A) (A) (A) (A) (A) (A) (A) (A)
                 (A) (A) (A) (A) (A) (A) (A) (A) (A) (A) (A) (A)
                 (A) (A) (A) (A) (A) (A) (A) (A) (A) (A) (A) (A)
                 (A) (A) (A) (A) (A) (A) (A) (A) (A) (A) (A) (A)
                 (A) (A) (A) (A) (A) (A) (A) (A) (A) (A) (A) (A)
                 (A) (A) (A) (A) (A) (A) (A) (A) (A) (A) (A) (A)
                 (A) (A) (A) (A) (A) (A) (A) (A) (A) (A) (A) (A)
                 (A) (A) (A) (A) (A) (A) (A) (A) (A) (A) (A) (A)
                 (A) (A) (A) (A) (A) (A) (A) (A) (A) (A) (A) (A)
                 (A) (A) (A) (A) (A) (A) (A) (A) (A) (A) (A) (A)
                 (A) (A) (A) (A) (A) (A) (A) (A) (A) (A) (A) (A)
                 (A) (A) (A) (A) (A) (A) (A) (A) (A) (A) (A) (A)
                 (A) (A) (A) (A) (A) (A) (A) (A) (A) (A) (A) (A)
                 (A) (A) (A) (A) (A) (A) (A) (A) (A) (A) (A) (A)
                 (A) (A) (A) (A) (A) (A) (A) (A) (A) (A) (A) (A)
                 (A) (A) (A) (A) (A) (A) (A) (A) (A) (A) (A) (A)
                 (A) (A) (A) (A) (A) (A) (A) (A) (A) (A) (A) (A)
                 (A) (A) (A) (A) (A) (A) (A) (A) (A) (A) (A) (A)
                 (A) (A) (A) (A) (A) (A) (A) (A) (A) (A) (A) (A)
                 (A) (A) (A) (A) (A) (A) (A) (A) (A) (A) (A) (A)
                 (A) (A) (A) (A) (A) (A) (A) (A) (A) (A) (A) (A)
                 (A) (A) (A) (A) (A) (A) (A) (A) (A) (A) (A) (A)
                 (A) (A) (A) (A) (A) (A) (A) (A) (A) (A) (A) (A)
                 (A) (A) (A) (A) (A) (A) (A) (A) (A) (A) (A) (A)
                 (A) (A) (A) (A) (A) (A) (A) (A) (A) (A) (A) (A)
                 (A) (A) (A)
 The electronic state is 2-A.
 Alpha  occ. eigenvalues -- -483.04405-483.03734 -89.24382 -62.00555 -61.99877
 Alpha  occ. eigenvalues --  -56.52685 -56.52323 -56.52247 -56.52020 -56.51637
 Alpha  occ. eigenvalues --  -56.51572 -19.33870 -19.32375 -19.25118 -19.24796
 Alpha  occ. eigenvalues --  -14.52431 -14.47338 -14.47024 -14.46843 -14.46829
 Alpha  occ. eigenvalues --  -14.46363 -10.44258 -10.44004 -10.43275 -10.39904
 Alpha  occ. eigenvalues --  -10.39539 -10.37615 -10.37227 -10.37109 -10.37018
 Alpha  occ. eigenvalues --  -10.36875 -10.36860 -10.36822 -10.34759 -10.34699
 Alpha  occ. eigenvalues --  -10.34449 -10.34441  -8.71697  -8.71017  -8.26591
 Alpha  occ. eigenvalues --   -6.67068  -6.66413  -6.65962  -6.65677  -6.65247
 Alpha  occ. eigenvalues --   -6.65007  -6.23182  -6.22979  -6.22908  -2.78655
 Alpha  occ. eigenvalues --   -2.78385  -2.78174  -2.77991  -2.77698  -2.77521
 Alpha  occ. eigenvalues --   -2.77277  -2.77266  -2.76577  -2.76570  -1.23267
 Alpha  occ. eigenvalues --   -1.23019  -1.22155  -1.13641  -1.10601  -1.10594
 Alpha  occ. eigenvalues --   -1.08154  -1.02393  -1.02262  -1.01697  -1.01118
 Alpha  occ. eigenvalues --   -0.96881  -0.95582  -0.92842  -0.90545  -0.90000
 Alpha  occ. eigenvalues --   -0.86587  -0.86000  -0.82195  -0.80614  -0.79830
 Alpha  occ. eigenvalues --   -0.77851  -0.76358  -0.74952  -0.74083  -0.73685
 Alpha  occ. eigenvalues --   -0.70338  -0.68581  -0.67400  -0.66450  -0.65914
 Alpha  occ. eigenvalues --   -0.64916  -0.63933  -0.63336  -0.62211  -0.61442
 Alpha  occ. eigenvalues --   -0.60343  -0.59761  -0.59420  -0.59090  -0.57957
 Alpha  occ. eigenvalues --   -0.57395  -0.57234  -0.56858  -0.56207  -0.55118
 Alpha  occ. eigenvalues --   -0.54291  -0.54089  -0.53609  -0.53065  -0.50651
 Alpha  occ. eigenvalues --   -0.50237  -0.50000  -0.49823  -0.48193  -0.47683
 Alpha  occ. eigenvalues --   -0.46959  -0.45983  -0.45840  -0.45006  -0.44344
 Alpha  occ. eigenvalues --   -0.44263  -0.43833  -0.42660  -0.42606  -0.41774
 Alpha  occ. eigenvalues --   -0.41224  -0.41054  -0.40646  -0.40292  -0.40248
 Alpha  occ. eigenvalues --   -0.39304  -0.37868  -0.37311  -0.37238  -0.36393
 Alpha virt. eigenvalues --   -0.17835  -0.16428  -0.15564  -0.15288  -0.14758
 Alpha virt. eigenvalues --   -0.13706  -0.12453  -0.11076  -0.06052  -0.03925
 Alpha virt. eigenvalues --   -0.02931  -0.02036  -0.01582  -0.01333  -0.00577
 Alpha virt. eigenvalues --    0.00295   0.00409   0.01017   0.01496   0.02079
 Alpha virt. eigenvalues --    0.02934   0.03098   0.03255   0.04039   0.04370
 Alpha virt. eigenvalues --    0.04894   0.05204   0.06226   0.06484   0.06786
 Alpha virt. eigenvalues --    0.07862   0.08469   0.09157   0.10169   0.11383
 Alpha virt. eigenvalues --    0.12225   0.13074   0.14169   0.14701   0.14970
 Alpha virt. eigenvalues --    0.15599   0.16519   0.17788   0.18842   0.19783
 Alpha virt. eigenvalues --    0.19979   0.22153   0.22651   0.23089   0.23975
 Alpha virt. eigenvalues --    0.24979   0.25787   0.27189   0.28677   0.29329
 Alpha virt. eigenvalues --    0.29586   0.32001   0.32301   0.33286   0.33338
 Alpha virt. eigenvalues --    0.33714   0.33879   0.34256   0.34545   0.34815
 Alpha virt. eigenvalues --    0.35367   0.35646   0.35996   0.36249   0.36307
 Alpha virt. eigenvalues --    0.36811   0.36991   0.37923   0.39355   0.39724
 Alpha virt. eigenvalues --    0.40083   0.41079   0.41246   0.41950   0.42382
 Alpha virt. eigenvalues --    0.42810   0.43417   0.44082   0.44348   0.44714
 Alpha virt. eigenvalues --    0.45812   0.46046   0.46369   0.46938   0.47491
 Alpha virt. eigenvalues --    0.47616   0.47929   0.48207   0.49437   0.50242
 Alpha virt. eigenvalues --    0.51022   0.51284   0.51687   0.52301   0.52466
 Alpha virt. eigenvalues --    0.53468   0.53848   0.54390   0.54746   0.55578
 Alpha virt. eigenvalues --    0.56558   0.58758   0.59209   0.59751   0.61425
 Alpha virt. eigenvalues --    0.61713   0.62067   0.62939   0.64757   0.65212
 Alpha virt. eigenvalues --    0.66172   0.66877   0.67428   0.68544   0.69048
 Alpha virt. eigenvalues --    0.69448   0.70188   0.70367   0.71135   0.71420
 Alpha virt. eigenvalues --    0.72165   0.72569   0.72857   0.73485   0.73922
 Alpha virt. eigenvalues --    0.74247   0.74627   0.75098   0.75792   0.76624
 Alpha virt. eigenvalues --    0.77314   0.77619   0.77986   0.78307   0.79187
 Alpha virt. eigenvalues --    0.79437   0.80697   0.81067   0.81530   0.82060
 Alpha virt. eigenvalues --    0.82421   0.84028   0.85105   0.85469   0.87091
 Alpha virt. eigenvalues --    0.87703   0.88730   0.89356   0.90679   0.92159
 Alpha virt. eigenvalues --    0.92992   0.94150   0.94780   0.95003   0.95592
 Alpha virt. eigenvalues --    0.96076   0.96997   0.97878   0.98306   0.99610
 Alpha virt. eigenvalues --    1.01010   1.01581   1.01826   1.03090   1.05172
 Alpha virt. eigenvalues --    1.05980   1.07920   1.08732   1.09224   1.10273
 Alpha virt. eigenvalues --    1.10710   1.11234   1.11537   1.12539   1.13429
 Alpha virt. eigenvalues --    1.15423   1.19462   1.20713   1.20783   1.22598
 Alpha virt. eigenvalues --    1.23256   1.23923   1.25546   1.25777   1.28394
 Alpha virt. eigenvalues --    1.28769   1.29297   1.30042   1.30980   1.31261
 Alpha virt. eigenvalues --    1.33091   1.33493   1.34376   1.35107   1.35534
 Alpha virt. eigenvalues --    1.36204   1.37061   1.37374   1.38148   1.40223
 Alpha virt. eigenvalues --    1.40337   1.40832   1.43340   1.44582   1.45045
 Alpha virt. eigenvalues --    1.46020   1.47575   1.48359   1.50450   1.50641
 Alpha virt. eigenvalues --    1.53316   1.55837   1.57185   1.57873   1.59550
 Alpha virt. eigenvalues --    1.61863   1.62649   1.64041   1.64871   1.65612
 Alpha virt. eigenvalues --    1.66154   1.67312   1.67790   1.67938   1.68212
 Alpha virt. eigenvalues --    1.70416   1.71056   1.71345   1.71892   1.72007
 Alpha virt. eigenvalues --    1.72854   1.73894   1.74690   1.76221   1.77088
 Alpha virt. eigenvalues --    1.79196   1.80093   1.80461   1.81053   1.82425
 Alpha virt. eigenvalues --    1.84009   1.85710   1.86838   1.88723   1.89780
 Alpha virt. eigenvalues --    1.90855   1.91529   1.92134   1.92295   1.96536
 Alpha virt. eigenvalues --    1.96984   1.98146   1.98553   1.99199   1.99594
 Alpha virt. eigenvalues --    2.00390   2.02338   2.03187   2.04585   2.05565
 Alpha virt. eigenvalues --    2.05821   2.05941   2.07227   2.07492   2.08702
 Alpha virt. eigenvalues --    2.09125   2.09568   2.11348   2.13149   2.14927
 Alpha virt. eigenvalues --    2.15422   2.16480   2.16844   2.17675   2.18288
 Alpha virt. eigenvalues --    2.20289   2.21791   2.22371   2.24381   2.25374
 Alpha virt. eigenvalues --    2.26126   2.26666   2.28969   2.30437   2.32144
 Alpha virt. eigenvalues --    2.34560   2.37619   2.37704   2.41135   2.42335
 Alpha virt. eigenvalues --    2.44247   2.45388   2.45808   2.47340   2.47558
 Alpha virt. eigenvalues --    2.48671   2.49442   2.51169   2.52680   2.53010
 Alpha virt. eigenvalues --    2.55221   2.55722   2.58181   2.59516   2.60597
 Alpha virt. eigenvalues --    2.60802   2.61945   2.63329   2.63952   2.64855
 Alpha virt. eigenvalues --    2.67041   2.69337   2.73241   2.74542   2.76497
 Alpha virt. eigenvalues --    2.78648   2.82357   2.86068   2.90127   2.93590
 Alpha virt. eigenvalues --    2.97600   3.12811   3.13066   3.21479   3.26450
 Alpha virt. eigenvalues --    3.31863   3.62003   3.70420   3.85298   3.86761
 Alpha virt. eigenvalues --    3.89750   3.91128   3.91597   3.92655   3.94012
 Alpha virt. eigenvalues --    3.96535   3.98429   3.99587   4.01163   4.07239
 Alpha virt. eigenvalues --    4.10068   4.10983   4.12200   4.15685   4.17903
 Alpha virt. eigenvalues --    4.19831   4.25809   4.31956   4.34470   4.41894
 Alpha virt. eigenvalues --    4.43316   4.51058   4.60081   8.47543   8.48132
 Alpha virt. eigenvalues --   72.65663  72.66128
  Beta  occ. eigenvalues -- -483.04377-483.03708 -89.24385 -62.00539 -61.99861
  Beta  occ. eigenvalues --  -56.52675 -56.52262 -56.52235 -56.52010 -56.51579
  Beta  occ. eigenvalues --  -56.51561 -19.33753 -19.32204 -19.25068 -19.24796
  Beta  occ. eigenvalues --  -14.52236 -14.47339 -14.47003 -14.46802 -14.46802
  Beta  occ. eigenvalues --  -14.46314 -10.44250 -10.43975 -10.43267 -10.39859
  Beta  occ. eigenvalues --  -10.39384 -10.37488 -10.37212 -10.37110 -10.36879
  Beta  occ. eigenvalues --  -10.36863 -10.36797 -10.36693 -10.34722 -10.34661
  Beta  occ. eigenvalues --  -10.34436 -10.34431  -8.71654  -8.70977  -8.26594
  Beta  occ. eigenvalues --   -6.67050  -6.66395  -6.65844  -6.65656  -6.65137
  Beta  occ. eigenvalues --   -6.64988  -6.23189  -6.22982  -6.22911  -2.78621
  Beta  occ. eigenvalues --   -2.78321  -2.78163  -2.77961  -2.77638  -2.77510
  Beta  occ. eigenvalues --   -2.77211  -2.77205  -2.76515  -2.76512  -1.23070
  Beta  occ. eigenvalues --   -1.22942  -1.21863  -1.13496  -1.10541  -1.10418
  Beta  occ. eigenvalues --   -1.07912  -1.02163  -1.02093  -1.01643  -1.00985
  Beta  occ. eigenvalues --   -0.96442  -0.95279  -0.92539  -0.90365  -0.89910
  Beta  occ. eigenvalues --   -0.86247  -0.85703  -0.82039  -0.80398  -0.79732
  Beta  occ. eigenvalues --   -0.77714  -0.76173  -0.74830  -0.73968  -0.73476
  Beta  occ. eigenvalues --   -0.70247  -0.68469  -0.67309  -0.66350  -0.65829
  Beta  occ. eigenvalues --   -0.64836  -0.63668  -0.63186  -0.62074  -0.61189
  Beta  occ. eigenvalues --   -0.60216  -0.59392  -0.59319  -0.59014  -0.57868
  Beta  occ. eigenvalues --   -0.57192  -0.57059  -0.56669  -0.56138  -0.54973
  Beta  occ. eigenvalues --   -0.54141  -0.53811  -0.53506  -0.52336  -0.50226
  Beta  occ. eigenvalues --   -0.50096  -0.49843  -0.49679  -0.47606  -0.47476
  Beta  occ. eigenvalues --   -0.46477  -0.45827  -0.45325  -0.44341  -0.44151
  Beta  occ. eigenvalues --   -0.44084  -0.43703  -0.42552  -0.41714  -0.41425
  Beta  occ. eigenvalues --   -0.41067  -0.40922  -0.40235  -0.40000  -0.39841
  Beta  occ. eigenvalues --   -0.38218  -0.37479  -0.37239  -0.34714
  Beta virt. eigenvalues --   -0.33409  -0.17136  -0.16069  -0.15138  -0.14925
  Beta virt. eigenvalues --   -0.13877  -0.13102  -0.12222  -0.10867  -0.05897
  Beta virt. eigenvalues --   -0.03830  -0.02864  -0.01941  -0.01501  -0.01057
  Beta virt. eigenvalues --   -0.00460   0.00509   0.00634   0.01406   0.01552
  Beta virt. eigenvalues --    0.02140   0.03004   0.03147   0.03296   0.04076
  Beta virt. eigenvalues --    0.04434   0.05016   0.05243   0.06292   0.06579
  Beta virt. eigenvalues --    0.06858   0.08084   0.08568   0.09227   0.10256
  Beta virt. eigenvalues --    0.11500   0.12368   0.13138   0.14293   0.14846
  Beta virt. eigenvalues --    0.15072   0.15739   0.16707   0.17922   0.18935
  Beta virt. eigenvalues --    0.19896   0.20147   0.22243   0.22746   0.23319
  Beta virt. eigenvalues --    0.24052   0.25072   0.25931   0.27257   0.28805
  Beta virt. eigenvalues --    0.29475   0.29725   0.32164   0.32349   0.33391
  Beta virt. eigenvalues --    0.33842   0.33875   0.34273   0.34766   0.34912
  Beta virt. eigenvalues --    0.34928   0.35490   0.35937   0.36245   0.36378
  Beta virt. eigenvalues --    0.36535   0.37089   0.37265   0.38093   0.39558
  Beta virt. eigenvalues --    0.39793   0.40269   0.41302   0.41426   0.42029
  Beta virt. eigenvalues --    0.42542   0.42934   0.43529   0.44205   0.44552
  Beta virt. eigenvalues --    0.44801   0.45869   0.46126   0.46426   0.46994
  Beta virt. eigenvalues --    0.47565   0.47678   0.48051   0.48296   0.49556
  Beta virt. eigenvalues --    0.50347   0.51161   0.51406   0.51793   0.52452
  Beta virt. eigenvalues --    0.52570   0.53599   0.53898   0.54508   0.54914
  Beta virt. eigenvalues --    0.55740   0.56710   0.58885   0.59367   0.59919
  Beta virt. eigenvalues --    0.61642   0.61949   0.62203   0.63332   0.64878
  Beta virt. eigenvalues --    0.65486   0.66263   0.67019   0.67659   0.68631
  Beta virt. eigenvalues --    0.69114   0.69516   0.70320   0.70520   0.71228
  Beta virt. eigenvalues --    0.71483   0.72220   0.72622   0.72974   0.73558
  Beta virt. eigenvalues --    0.74004   0.74315   0.74685   0.75164   0.75886
  Beta virt. eigenvalues --    0.76687   0.77377   0.77772   0.78086   0.78410
  Beta virt. eigenvalues --    0.79282   0.79478   0.80841   0.81195   0.81676
  Beta virt. eigenvalues --    0.82157   0.82477   0.84119   0.85196   0.85569
  Beta virt. eigenvalues --    0.87205   0.87793   0.88885   0.89414   0.90780
  Beta virt. eigenvalues --    0.92229   0.93065   0.94276   0.94859   0.95080
  Beta virt. eigenvalues --    0.95903   0.96212   0.97085   0.97990   0.98474
  Beta virt. eigenvalues --    0.99702   1.01187   1.01727   1.01969   1.03241
  Beta virt. eigenvalues --    1.05298   1.06097   1.08114   1.08795   1.09359
  Beta virt. eigenvalues --    1.10377   1.10980   1.11440   1.11656   1.12623
  Beta virt. eigenvalues --    1.13531   1.15553   1.19539   1.20838   1.20901
  Beta virt. eigenvalues --    1.22708   1.23382   1.24014   1.25672   1.25935
  Beta virt. eigenvalues --    1.28500   1.28945   1.29416   1.30213   1.31137
  Beta virt. eigenvalues --    1.31524   1.33207   1.33662   1.34618   1.35297
  Beta virt. eigenvalues --    1.35712   1.36410   1.37170   1.37515   1.38251
  Beta virt. eigenvalues --    1.40421   1.40577   1.41282   1.43493   1.44755
  Beta virt. eigenvalues --    1.45218   1.46149   1.47821   1.48465   1.50609
  Beta virt. eigenvalues --    1.50888   1.53441   1.55896   1.57365   1.58033
  Beta virt. eigenvalues --    1.59743   1.62048   1.62752   1.64231   1.64974
  Beta virt. eigenvalues --    1.65810   1.66272   1.67445   1.67881   1.68069
  Beta virt. eigenvalues --    1.68359   1.70519   1.71219   1.71440   1.72019
  Beta virt. eigenvalues --    1.72257   1.72943   1.74027   1.74769   1.76464
  Beta virt. eigenvalues --    1.77225   1.79323   1.80313   1.80570   1.81271
  Beta virt. eigenvalues --    1.82515   1.84365   1.85795   1.87088   1.88817
  Beta virt. eigenvalues --    1.89875   1.90993   1.91663   1.92268   1.92464
  Beta virt. eigenvalues --    1.96668   1.97215   1.98565   1.98672   1.99345
  Beta virt. eigenvalues --    1.99711   2.00679   2.02510   2.03335   2.04733
  Beta virt. eigenvalues --    2.05786   2.06006   2.06095   2.07421   2.07813
  Beta virt. eigenvalues --    2.08974   2.09220   2.09726   2.11535   2.13596
  Beta virt. eigenvalues --    2.15155   2.15593   2.16631   2.16925   2.17906
  Beta virt. eigenvalues --    2.18454   2.20575   2.21961   2.22519   2.24522
  Beta virt. eigenvalues --    2.25552   2.26338   2.26844   2.29209   2.30627
  Beta virt. eigenvalues --    2.32262   2.34678   2.37805   2.38005   2.41270
  Beta virt. eigenvalues --    2.42450   2.44491   2.45596   2.45919   2.47477
  Beta virt. eigenvalues --    2.47679   2.48945   2.49659   2.51275   2.52811
  Beta virt. eigenvalues --    2.53134   2.55289   2.55911   2.58359   2.59719
  Beta virt. eigenvalues --    2.60782   2.61005   2.62062   2.63438   2.64090
  Beta virt. eigenvalues --    2.64911   2.67175   2.69544   2.73282   2.74614
  Beta virt. eigenvalues --    2.76579   2.78906   2.82423   2.86137   2.90216
  Beta virt. eigenvalues --    2.93665   2.97680   3.12862   3.13154   3.21574
  Beta virt. eigenvalues --    3.26496   3.31949   3.62058   3.70541   3.85373
  Beta virt. eigenvalues --    3.86911   3.89903   3.91236   3.91614   3.92869
  Beta virt. eigenvalues --    3.94143   3.96627   3.98610   3.99784   4.01301
  Beta virt. eigenvalues --    4.07331   4.10181   4.11084   4.12341   4.15746
  Beta virt. eigenvalues --    4.17997   4.19931   4.26036   4.32030   4.34603
  Beta virt. eigenvalues --    4.42017   4.43437   4.51217   4.60344   8.47648
  Beta virt. eigenvalues --    8.48230  72.65725  72.66193
          Condensed to atoms (all electrons):
               1          2          3          4          5          6
     1  C    4.349928   0.439110  -0.055101  -0.035860  -0.055993   0.380919
     2  N    0.439110   6.770583   0.447909  -0.014168  -0.034703  -0.077511
     3  C   -0.055101   0.447909   4.864978   0.417964  -0.050439  -0.033688
     4  C   -0.035860  -0.014168   0.417964   5.021903   0.443665  -0.016581
     5  C   -0.055993  -0.034703  -0.050439   0.443665   4.834710   0.449377
     6  N    0.380919  -0.077511  -0.033688  -0.016581   0.449377   6.868635
     7  Br   0.000926   0.003326  -0.047918   0.273256  -0.048867   0.003406
     8  O    0.305984  -0.082501   0.001806   0.000414   0.001530  -0.079910
     9  C   -0.021586   0.004030  -0.000158   0.000062   0.000577  -0.006480
    10  C    0.002907  -0.000022   0.000000   0.000002  -0.000010   0.001126
    11  O   -0.000011   0.000000   0.000000   0.000000   0.000000   0.000004
    12  N    0.000000   0.000000   0.000000   0.000000   0.000000   0.000000
    13  C    0.000000   0.000000   0.000000   0.000000   0.000000   0.000000
    14  N    0.000000   0.000000   0.000000   0.000000   0.000000   0.000000
    15  C    0.000000   0.000000   0.000000   0.000000   0.000000   0.000000
    16  C    0.000000   0.000000   0.000000   0.000000   0.000000   0.000000
    17  C    0.000000   0.000000   0.000000   0.000000   0.000000   0.000000
    18  C    0.000000   0.000000   0.000000   0.000000   0.000000   0.000000
    19  C    0.000000   0.000000   0.000000   0.000000   0.000000   0.000000
    20  C    0.000000   0.000000   0.000000   0.000000   0.000000   0.000000
    21  C    0.000000   0.000000   0.000000   0.000000   0.000000   0.000000
    22  C    0.000000   0.000000   0.000000   0.000000   0.000000   0.000000
    23  C    0.000000   0.000000   0.000000   0.000000   0.000000   0.000000
    24  N    0.000000   0.000000   0.000000   0.000000   0.000000   0.000000
    25  Br   0.000000   0.000000   0.000000   0.000000   0.000000   0.000000
    26  S    0.000000   0.000000   0.000000   0.000000   0.000000   0.000000
    27  O    0.000000   0.000000   0.000000   0.000000   0.000000   0.000000
    28  O    0.000000   0.000000   0.000000   0.000000   0.000000   0.000000
    29  N    0.000000   0.000000   0.000000   0.000000   0.000000   0.000000
    30  H    0.004987  -0.046592   0.384595  -0.061619   0.003806  -0.000526
    31  H    0.004049  -0.000518   0.004126  -0.060974   0.381864  -0.047938
    32  H   -0.004346  -0.000055   0.000031  -0.000022  -0.000026   0.006286
    33  H   -0.004334  -0.000069   0.000029  -0.000020  -0.000036   0.006107
    34  H   -0.000036  -0.000010   0.000000   0.000000   0.000000  -0.000010
    35  H   -0.000034  -0.000011   0.000000   0.000000   0.000000  -0.000009
    36  H    0.000000   0.000000   0.000000   0.000000   0.000000   0.000000
    37  H    0.000000   0.000000   0.000000   0.000000   0.000000   0.000000
    38  H    0.000000   0.000000   0.000000   0.000000   0.000000   0.000000
    39  H    0.000000   0.000000   0.000000   0.000000   0.000000   0.000000
    40  H    0.000000   0.000000   0.000000   0.000000   0.000000   0.000000
    41  H    0.000000   0.000000   0.000000   0.000000   0.000000   0.000000
    42  H    0.000000   0.000000   0.000000   0.000000   0.000000   0.000000
    43  H    0.000000   0.000000   0.000000   0.000000   0.000000   0.000000
               7          8          9         10         11         12
     1  C    0.000926   0.305984  -0.021586   0.002907  -0.000011   0.000000
     2  N    0.003326  -0.082501   0.004030  -0.000022   0.000000   0.000000
     3  C   -0.047918   0.001806  -0.000158   0.000000   0.000000   0.000000
     4  C    0.273256   0.000414   0.000062   0.000002   0.000000   0.000000
     5  C   -0.048867   0.001530   0.000577  -0.000010   0.000000   0.000000
     6  N    0.003406  -0.079910  -0.006480   0.001126   0.000004   0.000000
     7  Br  34.787508   0.000004  -0.000001   0.000000   0.000000   0.000000
     8  O    0.000004   8.191677   0.194423  -0.035546   0.000927   0.000000
     9  C   -0.000001   0.194423   4.906791   0.349254  -0.035357   0.000001
    10  C    0.000000  -0.035546   0.349254   4.915754   0.188312   0.000053
    11  O    0.000000   0.000927  -0.035357   0.188312   8.229475   0.000053
    12  N    0.000000   0.000000   0.000001   0.000053   0.000053   6.909335
    13  C    0.000000   0.000000  -0.000004   0.000415   0.002205   0.449827
    14  N    0.000000   0.000003   0.001110  -0.007570  -0.075532  -0.042961
    15  C    0.000000   0.000004   0.002580  -0.023537   0.307325  -0.038190
    16  C    0.000000   0.000001   0.000086   0.005720  -0.077545  -0.047821
    17  C    0.000000   0.000000   0.000004   0.000009   0.001574   0.402510
    18  C    0.000000   0.000000  -0.000003  -0.000104   0.003369  -0.000053
    19  C    0.000000   0.000000  -0.000064  -0.000216  -0.000219   0.004525
    20  C    0.000000   0.000000  -0.000001   0.000008  -0.000487  -0.000026
    21  C    0.000000   0.000000   0.000000   0.000000  -0.000013   0.000001
    22  C    0.000000   0.000000   0.000000   0.000000   0.000009   0.000000
    23  C    0.000000   0.000000  -0.000001   0.000003  -0.000174   0.000001
    24  N    0.000000   0.000000   0.000000   0.000001  -0.000033  -0.087840
    25  Br   0.000000   0.000000   0.000000   0.000000   0.000000   0.000000
    26  S    0.000000   0.000000   0.000000   0.000000   0.000000  -0.000392
    27  O    0.000000   0.000000   0.000000   0.000000   0.000000  -0.000060
    28  O    0.000000   0.000000   0.000000   0.000000   0.000000  -0.002856
    29  N    0.000000   0.000000   0.000000   0.000000   0.000000  -0.012629
    30  H    0.001621  -0.000042   0.000002   0.000000   0.000000   0.000000
    31  H    0.001387  -0.000069  -0.000031  -0.000001   0.000000   0.000000
    32  H    0.000000  -0.029807   0.363599  -0.035968   0.003997   0.000000
    33  H    0.000000  -0.029573   0.364771  -0.035125   0.003827   0.000000
    34  H    0.000000   0.004148  -0.034966   0.369148  -0.029440  -0.000004
    35  H    0.000000   0.004131  -0.035305   0.368272  -0.030049  -0.000001
    36  H    0.000000   0.000000  -0.000001  -0.000037  -0.000064  -0.060928
    37  H    0.000000   0.000000  -0.000003  -0.000056   0.002120  -0.000002
    38  H    0.000000   0.000000   0.000000   0.000000  -0.000005  -0.000108
    39  H    0.000000   0.000000   0.000000   0.000000   0.000000   0.000000
    40  H    0.000000   0.000000   0.000000   0.000000  -0.000002   0.000000
    41  H    0.000000   0.000000   0.000000   0.000000   0.000001   0.003587
    42  H    0.000000   0.000000   0.000000   0.000000   0.000000   0.029168
    43  H    0.000000   0.000000   0.000000   0.000000   0.000000   0.000443
              13         14         15         16         17         18
     1  C    0.000000   0.000000   0.000000   0.000000   0.000000   0.000000
     2  N    0.000000   0.000000   0.000000   0.000000   0.000000   0.000000
     3  C    0.000000   0.000000   0.000000   0.000000   0.000000   0.000000
     4  C    0.000000   0.000000   0.000000   0.000000   0.000000   0.000000
     5  C    0.000000   0.000000   0.000000   0.000000   0.000000   0.000000
     6  N    0.000000   0.000000   0.000000   0.000000   0.000000   0.000000
     7  Br   0.000000   0.000000   0.000000   0.000000   0.000000   0.000000
     8  O    0.000000   0.000003   0.000004   0.000001   0.000000   0.000000
     9  C   -0.000004   0.001110   0.002580   0.000086   0.000004  -0.000003
    10  C    0.000415  -0.007570  -0.023537   0.005720   0.000009  -0.000104
    11  O    0.002205  -0.075532   0.307325  -0.077545   0.001574   0.003369
    12  N    0.449827  -0.042961  -0.038190  -0.047821   0.402510  -0.000053
    13  C    4.619040   0.432969  -0.040557  -0.036493  -0.040208   0.000002
    14  N    0.432969   6.914296   0.387849  -0.046927  -0.045698   0.000037
    15  C   -0.040557   0.387849   4.466949   0.430814  -0.024284  -0.005574
    16  C   -0.036493  -0.046927   0.430814   5.276311   0.399878  -0.042152
    17  C   -0.040208  -0.045698  -0.024284   0.399878   4.547718   0.002576
    18  C    0.000002   0.000037  -0.005574  -0.042152   0.002576   4.924592
    19  C    0.000603   0.005537  -0.045163   0.289788  -0.051030   0.513302
    20  C    0.000005  -0.000067   0.002086  -0.043619  -0.007119  -0.042262
    21  C    0.000000   0.000001  -0.000056   0.005402   0.000298  -0.041188
    22  C    0.000000   0.000000   0.000027   0.000607   0.000015  -0.027670
    23  C    0.000000   0.000001   0.000331   0.005541  -0.000067   0.499968
    24  N    0.004261   0.000054   0.004549  -0.081479   0.239614   0.000010
    25  Br   0.000000   0.000000   0.000000   0.000001   0.000000   0.004920
    26  S    0.000020   0.000089   0.000135   0.000801   0.014075   0.000006
    27  O    0.000000   0.000000   0.000000  -0.000097   0.001633   0.000000
    28  O   -0.000077  -0.000002  -0.000005   0.000098   0.003921   0.000000
    29  N    0.000110  -0.000011   0.000003  -0.000228  -0.007150   0.000000
    30  H    0.000000   0.000000   0.000000   0.000000   0.000000   0.000000
    31  H    0.000000   0.000000   0.000000   0.000000   0.000000   0.000000
    32  H    0.000000  -0.000009   0.000003  -0.000024   0.000000   0.000044
    33  H    0.000000  -0.000012   0.000052  -0.000045   0.000000   0.000025
    34  H   -0.000058   0.005283  -0.003339   0.000104   0.000012   0.000008
    35  H   -0.000060   0.006018  -0.003416   0.000052   0.000003  -0.000009
    36  H    0.394203  -0.059579   0.003885   0.000470   0.004551   0.000000
    37  H   -0.000002  -0.000087   0.001476  -0.006946   0.000128   0.362582
    38  H   -0.000003   0.000000   0.000216  -0.004408   0.000506   0.004532
    39  H    0.000000   0.000000   0.000000  -0.000156  -0.000002   0.000380
    40  H    0.000000   0.000000  -0.000005  -0.000151   0.000000  -0.032621
    41  H   -0.000098   0.000002   0.000239  -0.007859  -0.011879   0.000047
    42  H    0.000052   0.000093   0.000004   0.000382  -0.000428   0.000000
    43  H    0.000002   0.000000   0.000000   0.000005   0.000180   0.000000
              19         20         21         22         23         24
     1  C    0.000000   0.000000   0.000000   0.000000   0.000000   0.000000
     2  N    0.000000   0.000000   0.000000   0.000000   0.000000   0.000000
     3  C    0.000000   0.000000   0.000000   0.000000   0.000000   0.000000
     4  C    0.000000   0.000000   0.000000   0.000000   0.000000   0.000000
     5  C    0.000000   0.000000   0.000000   0.000000   0.000000   0.000000
     6  N    0.000000   0.000000   0.000000   0.000000   0.000000   0.000000
     7  Br   0.000000   0.000000   0.000000   0.000000   0.000000   0.000000
     8  O    0.000000   0.000000   0.000000   0.000000   0.000000   0.000000
     9  C   -0.000064  -0.000001   0.000000   0.000000  -0.000001   0.000000
    10  C   -0.000216   0.000008   0.000000   0.000000   0.000003   0.000001
    11  O   -0.000219  -0.000487  -0.000013   0.000009  -0.000174  -0.000033
    12  N    0.004525  -0.000026   0.000001   0.000000   0.000001  -0.087840
    13  C    0.000603   0.000005   0.000000   0.000000   0.000000   0.004261
    14  N    0.005537  -0.000067   0.000001   0.000000   0.000001   0.000054
    15  C   -0.045163   0.002086  -0.000056   0.000027   0.000331   0.004549
    16  C    0.289788  -0.043619   0.005402   0.000607   0.005541  -0.081479
    17  C   -0.051030  -0.007119   0.000298   0.000015  -0.000067   0.239614
    18  C    0.513302  -0.042262  -0.041188  -0.027670   0.499968   0.000010
    19  C    4.873766   0.499850  -0.024952  -0.026192  -0.019708  -0.012276
    20  C    0.499850   4.983219   0.496954  -0.028027  -0.043049  -0.000824
    21  C   -0.024952   0.496954   4.956743   0.504351  -0.042885  -0.000367
    22  C   -0.026192  -0.028027   0.504351   4.769408   0.500782   0.000012
    23  C   -0.019708  -0.043049  -0.042885   0.500782   4.963075  -0.000001
    24  N   -0.012276  -0.000824  -0.000367   0.000012  -0.000001   7.502929
    25  Br   0.000177   0.004983  -0.056519   0.291996  -0.056467   0.000000
    26  S   -0.000215  -0.000023  -0.000013   0.000001  -0.000001   0.056842
    27  O   -0.000011  -0.000006   0.000000   0.000000   0.000000  -0.048922
    28  O    0.000014  -0.000029   0.000000   0.000000   0.000000  -0.051473
    29  N   -0.000003   0.000001   0.000000   0.000000   0.000000  -0.045545
    30  H    0.000000   0.000000   0.000000   0.000000   0.000000   0.000000
    31  H    0.000000   0.000000   0.000000   0.000000   0.000000   0.000000
    32  H   -0.000015   0.000000   0.000000   0.000001   0.000007   0.000000
    33  H    0.000050   0.000002   0.000000  -0.000001  -0.000001   0.000000
    34  H    0.000004   0.000001   0.000000   0.000000   0.000000   0.000000
    35  H    0.000030  -0.000001   0.000000   0.000000   0.000000   0.000000
    36  H    0.000031   0.000000   0.000000   0.000000   0.000000  -0.000138
    37  H   -0.041888   0.005084   0.000275   0.003980  -0.034450  -0.000008
    38  H   -0.044095   0.364117  -0.031064   0.003691   0.000348   0.001242
    39  H    0.003294  -0.031723   0.362477  -0.037301   0.004459  -0.000002
    40  H    0.003403   0.000338   0.004572  -0.037987   0.362421   0.000000
    41  H    0.010669   0.008870   0.000279  -0.000054  -0.000105   0.289754
    42  H   -0.000005   0.000000   0.000000   0.000000   0.000000  -0.001853
    43  H    0.000000   0.000000   0.000000   0.000000   0.000000   0.002301
              25         26         27         28         29         30
     1  C    0.000000   0.000000   0.000000   0.000000   0.000000   0.004987
     2  N    0.000000   0.000000   0.000000   0.000000   0.000000  -0.046592
     3  C    0.000000   0.000000   0.000000   0.000000   0.000000   0.384595
     4  C    0.000000   0.000000   0.000000   0.000000   0.000000  -0.061619
     5  C    0.000000   0.000000   0.000000   0.000000   0.000000   0.003806
     6  N    0.000000   0.000000   0.000000   0.000000   0.000000  -0.000526
     7  Br   0.000000   0.000000   0.000000   0.000000   0.000000   0.001621
     8  O    0.000000   0.000000   0.000000   0.000000   0.000000  -0.000042
     9  C    0.000000   0.000000   0.000000   0.000000   0.000000   0.000002
    10  C    0.000000   0.000000   0.000000   0.000000   0.000000   0.000000
    11  O    0.000000   0.000000   0.000000   0.000000   0.000000   0.000000
    12  N    0.000000  -0.000392  -0.000060  -0.002856  -0.012629   0.000000
    13  C    0.000000   0.000020   0.000000  -0.000077   0.000110   0.000000
    14  N    0.000000   0.000089   0.000000  -0.000002  -0.000011   0.000000
    15  C    0.000000   0.000135   0.000000  -0.000005   0.000003   0.000000
    16  C    0.000001   0.000801  -0.000097   0.000098  -0.000228   0.000000
    17  C    0.000000   0.014075   0.001633   0.003921  -0.007150   0.000000
    18  C    0.004920   0.000006   0.000000   0.000000   0.000000   0.000000
    19  C    0.000177  -0.000215  -0.000011   0.000014  -0.000003   0.000000
    20  C    0.004983  -0.000023  -0.000006  -0.000029   0.000001   0.000000
    21  C   -0.056519  -0.000013   0.000000   0.000000   0.000000   0.000000
    22  C    0.291996   0.000001   0.000000   0.000000   0.000000   0.000000
    23  C   -0.056467  -0.000001   0.000000   0.000000   0.000000   0.000000
    24  N    0.000000   0.056842  -0.048922  -0.051473  -0.045545   0.000000
    25  Br  34.788216   0.000000   0.000000   0.000000   0.000000   0.000000
    26  S    0.000000  13.557482   0.474844   0.450100   0.200699   0.000000
    27  O    0.000000   0.474844   8.161467  -0.047135  -0.058149   0.000000
    28  O    0.000000   0.450100  -0.047135   8.172618  -0.059805   0.000000
    29  N    0.000000   0.200699  -0.058149  -0.059805   7.212548   0.000000
    30  H    0.000000   0.000000   0.000000   0.000000   0.000000   0.502412
    31  H    0.000000   0.000000   0.000000   0.000000   0.000000  -0.000129
    32  H    0.000000   0.000000   0.000000   0.000000   0.000000   0.000000
    33  H    0.000000   0.000000   0.000000   0.000000   0.000000   0.000000
    34  H    0.000000   0.000000   0.000000   0.000000   0.000000   0.000000
    35  H    0.000000   0.000000   0.000000   0.000000   0.000000   0.000000
    36  H    0.000000  -0.000057   0.000000   0.000007   0.000049   0.000000
    37  H   -0.000122   0.000000   0.000000   0.000000   0.000000   0.000000
    38  H   -0.000118   0.000312  -0.000017   0.000046   0.000001   0.000000
    39  H   -0.002443  -0.000001   0.000000   0.000000   0.000000   0.000000
    40  H   -0.002362   0.000000   0.000000   0.000000   0.000000   0.000000
    41  H    0.000000  -0.010530   0.006110   0.000070   0.001316   0.000000
    42  H    0.000000   0.000866   0.001594  -0.000807   0.264081   0.000000
    43  H    0.000000  -0.011513  -0.000173  -0.000109   0.304433   0.000000
              31         32         33         34         35         36
     1  C    0.004049  -0.004346  -0.004334  -0.000036  -0.000034   0.000000
     2  N   -0.000518  -0.000055  -0.000069  -0.000010  -0.000011   0.000000
     3  C    0.004126   0.000031   0.000029   0.000000   0.000000   0.000000
     4  C   -0.060974  -0.000022  -0.000020   0.000000   0.000000   0.000000
     5  C    0.381864  -0.000026  -0.000036   0.000000   0.000000   0.000000
     6  N   -0.047938   0.006286   0.006107  -0.000010  -0.000009   0.000000
     7  Br   0.001387   0.000000   0.000000   0.000000   0.000000   0.000000
     8  O   -0.000069  -0.029807  -0.029573   0.004148   0.004131   0.000000
     9  C   -0.000031   0.363599   0.364771  -0.034966  -0.035305  -0.000001
    10  C   -0.000001  -0.035968  -0.035125   0.369148   0.368272  -0.000037
    11  O    0.000000   0.003997   0.003827  -0.029440  -0.030049  -0.000064
    12  N    0.000000   0.000000   0.000000  -0.000004  -0.000001  -0.060928
    13  C    0.000000   0.000000   0.000000  -0.000058  -0.000060   0.394203
    14  N    0.000000  -0.000009  -0.000012   0.005283   0.006018  -0.059579
    15  C    0.000000   0.000003   0.000052  -0.003339  -0.003416   0.003885
    16  C    0.000000  -0.000024  -0.000045   0.000104   0.000052   0.000470
    17  C    0.000000   0.000000   0.000000   0.000012   0.000003   0.004551
    18  C    0.000000   0.000044   0.000025   0.000008  -0.000009   0.000000
    19  C    0.000000  -0.000015   0.000050   0.000004   0.000030   0.000031
    20  C    0.000000   0.000000   0.000002   0.000001  -0.000001   0.000000
    21  C    0.000000   0.000000   0.000000   0.000000   0.000000   0.000000
    22  C    0.000000   0.000001  -0.000001   0.000000   0.000000   0.000000
    23  C    0.000000   0.000007  -0.000001   0.000000   0.000000   0.000000
    24  N    0.000000   0.000000   0.000000   0.000000   0.000000  -0.000138
    25  Br   0.000000   0.000000   0.000000   0.000000   0.000000   0.000000
    26  S    0.000000   0.000000   0.000000   0.000000   0.000000  -0.000057
    27  O    0.000000   0.000000   0.000000   0.000000   0.000000   0.000000
    28  O    0.000000   0.000000   0.000000   0.000000   0.000000   0.000007
    29  N    0.000000   0.000000   0.000000   0.000000   0.000000   0.000049
    30  H   -0.000129   0.000000   0.000000   0.000000   0.000000   0.000000
    31  H    0.514101   0.000006   0.000006   0.000000   0.000000   0.000000
    32  H    0.000006   0.555394  -0.041177   0.005123  -0.006718   0.000000
    33  H    0.000006  -0.041177   0.547361  -0.006685   0.005072   0.000000
    34  H    0.000000   0.005123  -0.006685   0.524360  -0.037241   0.000010
    35  H    0.000000  -0.006718   0.005072  -0.037241   0.528979   0.000008
    36  H    0.000000   0.000000   0.000000   0.000010   0.000008   0.513107
    37  H    0.000000   0.000117  -0.000003   0.000007  -0.000012   0.000000
    38  H    0.000000   0.000000   0.000000   0.000000   0.000000   0.000000
    39  H    0.000000   0.000000   0.000000   0.000000   0.000000   0.000000
    40  H    0.000000   0.000000   0.000000   0.000000   0.000000   0.000000
    41  H    0.000000   0.000000   0.000000   0.000000   0.000000   0.000003
    42  H    0.000000   0.000000   0.000000   0.000000   0.000000  -0.000191
    43  H    0.000000   0.000000   0.000000   0.000000   0.000000  -0.000001
              37         38         39         40         41         42
     1  C    0.000000   0.000000   0.000000   0.000000   0.000000   0.000000
     2  N    0.000000   0.000000   0.000000   0.000000   0.000000   0.000000
     3  C    0.000000   0.000000   0.000000   0.000000   0.000000   0.000000
     4  C    0.000000   0.000000   0.000000   0.000000   0.000000   0.000000
     5  C    0.000000   0.000000   0.000000   0.000000   0.000000   0.000000
     6  N    0.000000   0.000000   0.000000   0.000000   0.000000   0.000000
     7  Br   0.000000   0.000000   0.000000   0.000000   0.000000   0.000000
     8  O    0.000000   0.000000   0.000000   0.000000   0.000000   0.000000
     9  C   -0.000003   0.000000   0.000000   0.000000   0.000000   0.000000
    10  C   -0.000056   0.000000   0.000000   0.000000   0.000000   0.000000
    11  O    0.002120  -0.000005   0.000000  -0.000002   0.000001   0.000000
    12  N   -0.000002  -0.000108   0.000000   0.000000   0.003587   0.029168
    13  C   -0.000002  -0.000003   0.000000   0.000000  -0.000098   0.000052
    14  N   -0.000087   0.000000   0.000000   0.000000   0.000002   0.000093
    15  C    0.001476   0.000216   0.000000  -0.000005   0.000239   0.000004
    16  C   -0.006946  -0.004408  -0.000156  -0.000151  -0.007859   0.000382
    17  C    0.000128   0.000506  -0.000002   0.000000  -0.011879  -0.000428
    18  C    0.362582   0.004532   0.000380  -0.032621   0.000047   0.000000
    19  C   -0.041888  -0.044095   0.003294   0.003403   0.010669  -0.000005
    20  C    0.005084   0.364117  -0.031723   0.000338   0.008870   0.000000
    21  C    0.000275  -0.031064   0.362477   0.004572   0.000279   0.000000
    22  C    0.003980   0.003691  -0.037301  -0.037987  -0.000054   0.000000
    23  C   -0.034450   0.000348   0.004459   0.362421  -0.000105   0.000000
    24  N   -0.000008   0.001242  -0.000002   0.000000   0.289754  -0.001853
    25  Br  -0.000122  -0.000118  -0.002443  -0.002362   0.000000   0.000000
    26  S    0.000000   0.000312  -0.000001   0.000000  -0.010530   0.000866
    27  O    0.000000  -0.000017   0.000000   0.000000   0.006110   0.001594
    28  O    0.000000   0.000046   0.000000   0.000000   0.000070  -0.000807
    29  N    0.000000   0.000001   0.000000   0.000000   0.001316   0.264081
    30  H    0.000000   0.000000   0.000000   0.000000   0.000000   0.000000
    31  H    0.000000   0.000000   0.000000   0.000000   0.000000   0.000000
    32  H    0.000117   0.000000   0.000000   0.000000   0.000000   0.000000
    33  H   -0.000003   0.000000   0.000000   0.000000   0.000000   0.000000
    34  H    0.000007   0.000000   0.000000   0.000000   0.000000   0.000000
    35  H   -0.000012   0.000000   0.000000   0.000000   0.000000   0.000000
    36  H    0.000000   0.000000   0.000000   0.000000   0.000003  -0.000191
    37  H    0.532900  -0.000138   0.000013  -0.004775   0.000004   0.000000
    38  H   -0.000138   0.513043  -0.004438   0.000013  -0.000210   0.000000
    39  H    0.000013  -0.004438   0.499483  -0.000122   0.000002   0.000000
    40  H   -0.004775   0.000013  -0.000122   0.507866  -0.000001   0.000000
    41  H    0.000004  -0.000210   0.000002  -0.000001   0.316648  -0.000069
    42  H    0.000000   0.000000   0.000000   0.000000  -0.000069   0.343397
    43  H    0.000000   0.000000   0.000000   0.000000  -0.000031  -0.015740
              43
     1  C    0.000000
     2  N    0.000000
     3  C    0.000000
     4  C    0.000000
     5  C    0.000000
     6  N    0.000000
     7  Br   0.000000
     8  O    0.000000
     9  C    0.000000
    10  C    0.000000
    11  O    0.000000
    12  N    0.000443
    13  C    0.000002
    14  N    0.000000
    15  C    0.000000
    16  C    0.000005
    17  C    0.000180
    18  C    0.000000
    19  C    0.000000
    20  C    0.000000
    21  C    0.000000
    22  C    0.000000
    23  C    0.000000
    24  N    0.002301
    25  Br   0.000000
    26  S   -0.011513
    27  O   -0.000173
    28  O   -0.000109
    29  N    0.304433
    30  H    0.000000
    31  H    0.000000
    32  H    0.000000
    33  H    0.000000
    34  H    0.000000
    35  H    0.000000
    36  H   -0.000001
    37  H    0.000000
    38  H    0.000000
    39  H    0.000000
    40  H    0.000000
    41  H   -0.000031
    42  H   -0.015740
    43  H    0.339978
          Atomic-Atomic Spin Densities.
               1          2          3          4          5          6
     1  C    0.018521   0.006541  -0.000584  -0.001691  -0.000977   0.006945
     2  N    0.006541   0.026369  -0.005560  -0.001569  -0.000329   0.000529
     3  C   -0.000584  -0.005560  -0.005138   0.007564  -0.000269  -0.000259
     4  C   -0.001691  -0.001569   0.007564   0.090114   0.009937  -0.001749
     5  C   -0.000977  -0.000329  -0.000269   0.009937   0.007136  -0.006885
     6  N    0.006945   0.000529  -0.000259  -0.001749  -0.006885   0.023016
     7  Br   0.000040   0.000062  -0.000786  -0.016812  -0.001213   0.000068
     8  O   -0.012159  -0.001247   0.000083   0.000026   0.000089  -0.001048
     9  C    0.000351  -0.000006   0.000000  -0.000001  -0.000004   0.000077
    10  C    0.000019   0.000001   0.000000   0.000000   0.000000  -0.000005
    11  O   -0.000002   0.000000   0.000000   0.000000   0.000000   0.000000
    12  N    0.000000   0.000000   0.000000   0.000000   0.000000   0.000000
    13  C    0.000000   0.000000   0.000000   0.000000   0.000000   0.000000
    14  N    0.000000   0.000000   0.000000   0.000000   0.000000   0.000000
    15  C    0.000000   0.000000   0.000000   0.000000   0.000000   0.000000
    16  C    0.000000   0.000000   0.000000   0.000000   0.000000   0.000000
    17  C    0.000000   0.000000   0.000000   0.000000   0.000000   0.000000
    18  C    0.000000   0.000000   0.000000   0.000000   0.000000   0.000000
    19  C    0.000000   0.000000   0.000000   0.000000   0.000000   0.000000
    20  C    0.000000   0.000000   0.000000   0.000000   0.000000   0.000000
    21  C    0.000000   0.000000   0.000000   0.000000   0.000000   0.000000
    22  C    0.000000   0.000000   0.000000   0.000000   0.000000   0.000000
    23  C    0.000000   0.000000   0.000000   0.000000   0.000000   0.000000
    24  N    0.000000   0.000000   0.000000   0.000000   0.000000   0.000000
    25  Br   0.000000   0.000000   0.000000   0.000000   0.000000   0.000000
    26  S    0.000000   0.000000   0.000000   0.000000   0.000000   0.000000
    27  O    0.000000   0.000000   0.000000   0.000000   0.000000   0.000000
    28  O    0.000000   0.000000   0.000000   0.000000   0.000000   0.000000
    29  N    0.000000   0.000000   0.000000   0.000000   0.000000   0.000000
    30  H    0.000007   0.000066   0.000326  -0.000178   0.000005  -0.000003
    31  H    0.000009  -0.000003   0.000002  -0.000170   0.000309   0.000075
    32  H    0.000282   0.000007  -0.000001  -0.000002  -0.000017   0.000129
    33  H    0.000251   0.000007  -0.000001  -0.000001  -0.000012   0.000102
    34  H    0.000014   0.000001   0.000000   0.000000   0.000000   0.000002
    35  H    0.000008   0.000001   0.000000   0.000000   0.000000   0.000001
    36  H    0.000000   0.000000   0.000000   0.000000   0.000000   0.000000
    37  H    0.000000   0.000000   0.000000   0.000000   0.000000   0.000000
    38  H    0.000000   0.000000   0.000000   0.000000   0.000000   0.000000
    39  H    0.000000   0.000000   0.000000   0.000000   0.000000   0.000000
    40  H    0.000000   0.000000   0.000000   0.000000   0.000000   0.000000
    41  H    0.000000   0.000000   0.000000   0.000000   0.000000   0.000000
[...]
   246. RY*(   6) O  11                  0.00006     2.62106   
   247. RY*(   7) O  11                  0.00003     3.35340   
   248. RY*(   8) O  11                  0.00002     2.08191   
   249. RY*(   9) O  11                  0.00001     1.78849   
   250. RY*(  10) O  11                  0.00001     2.10162   
   251. RY*(   1) N  12                  0.00189     0.87455   
   252. RY*(   2) N  12                  0.00097     1.08251   
   253. RY*(   3) N  12                  0.00047     0.77885   
   254. RY*(   4) N  12                  0.00014     1.82304   
   255. RY*(   5) N  12                  0.00011     1.64220   
   256. RY*(   6) N  12                  0.00009     2.17204   
   257. RY*(   7) N  12                  0.00004     2.02539   
   258. RY*(   8) N  12                  0.00002     1.64843   
   259. RY*(   9) N  12                  0.00001     3.67335   
   260. RY*(  10) N  12                  0.00002     2.01579   
   261. RY*(   1) C  13                  0.00618     0.46234   
   262. RY*(   2) C  13                  0.00271     1.22309   
   263. RY*(   3) C  13                  0.00103     2.09558   
   264. RY*(   4) C  13                  0.00033     2.54236   
   265. RY*(   5) C  13                  0.00030     0.57740   
   266. RY*(   6) C  13                  0.00030     2.33465   
   267. RY*(   7) C  13                  0.00010     1.44869   
   268. RY*(   8) C  13                  0.00000     1.64954   
   269. RY*(   9) C  13                  0.00000     2.67531   
   270. RY*(  10) C  13                  0.00000     2.27733   
   271. RY*(   1) N  14                  0.00175     0.83380   
   272. RY*(   2) N  14                  0.00098     1.13974   
   273. RY*(   3) N  14                  0.00032     0.72437   
   274. RY*(   4) N  14                  0.00023     1.88352   
   275. RY*(   5) N  14                  0.00009     2.15268   
   276. RY*(   6) N  14                  0.00010     1.63910   
   277. RY*(   7) N  14                  0.00005     1.98729   
   278. RY*(   8) N  14                  0.00002     1.63958   
   279. RY*(   9) N  14                  0.00001     3.78578   
   280. RY*(  10) N  14                  0.00001     1.93792   
   281. RY*(   1) C  15                  0.00426     0.84666   
   282. RY*(   2) C  15                  0.00266     0.82658   
   283. RY*(   3) C  15                  0.00156     1.88182   
   284. RY*(   4) C  15                  0.00135     1.58851   
   285. RY*(   5) C  15                  0.00061     2.18706   
   286. RY*(   6) C  15                  0.00053     1.87195   
   287. RY*(   7) C  15                  0.00025     0.71824   
   288. RY*(   8) C  15                  0.00014     1.78036   
   289. RY*(   9) C  15                  0.00008     3.55327   
   290. RY*(  10) C  15                  0.00001     2.21676   
   291. RY*(   1) C  16                  0.00264     0.81298   
   292. RY*(   2) C  16                  0.00171     1.25363   
   293. RY*(   3) C  16                  0.00127     0.75514   
   294. RY*(   4) C  16                  0.00053     1.01092   
   295. RY*(   5) C  16                  0.00022     2.18518   
   296. RY*(   6) C  16                  0.00016     1.77912   
   297. RY*(   7) C  16                  0.00007     2.41843   
   298. RY*(   8) C  16                  0.00005     2.18166   
   299. RY*(   9) C  16                  0.00002     3.68209   
   300. RY*(  10) C  16                  0.00002     2.23176   
   301. RY*(   1) C  17                  0.00490     0.77718   
   302. RY*(   2) C  17                  0.00254     0.98760   
   303. RY*(   3) C  17                  0.00106     1.59246   
   304. RY*(   4) C  17                  0.00092     1.74131   
   305. RY*(   5) C  17                  0.00055     1.51121   
   306. RY*(   6) C  17                  0.00030     1.02134   
   307. RY*(   7) C  17                  0.00020     1.64278   
   308. RY*(   8) C  17                  0.00012     2.49310   
   309. RY*(   9) C  17                  0.00006     3.56572   
   310. RY*(  10) C  17                  0.00001     2.21477   
   311. RY*(   1) C  18                  0.00247     1.13587   
   312. RY*(   2) C  18                  0.00131     0.62753   
   313. RY*(   3) C  18                  0.00036     0.99949   
   314. RY*(   4) C  18                  0.00024     1.28624   
   315. RY*(   5) C  18                  0.00013     1.07844   
   316. RY*(   6) C  18                  0.00005     2.20770   
   317. RY*(   7) C  18                  0.00001     2.17435   
   318. RY*(   8) C  18                  0.00002     2.07497   
   319. RY*(   9) C  18                  0.00001     3.99611   
   320. RY*(  10) C  18                  0.00001     1.65895   
   321. RY*(   1) C  19                  0.00260     1.19300   
   322. RY*(   2) C  19                  0.00215     0.81731   
   323. RY*(   3) C  19                  0.00102     0.70168   
   324. RY*(   4) C  19                  0.00041     0.97579   
   325. RY*(   5) C  19                  0.00030     1.77800   
   326. RY*(   6) C  19                  0.00021     2.10588   
   327. RY*(   7) C  19                  0.00008     2.07599   
   328. RY*(   8) C  19                  0.00005     2.68647   
   329. RY*(   9) C  19                  0.00003     3.43763   
   330. RY*(  10) C  19                  0.00001     2.41205   
   331. RY*(   1) C  20                  0.00242     1.13657   
   332. RY*(   2) C  20                  0.00125     0.62903   
   333. RY*(   3) C  20                  0.00032     1.51880   
   334. RY*(   4) C  20                  0.00023     0.74768   
   335. RY*(   5) C  20                  0.00013     1.14974   
   336. RY*(   6) C  20                  0.00005     2.20080   
   337. RY*(   7) C  20                  0.00001     1.99909   
   338. RY*(   8) C  20                  0.00001     4.00887   
   339. RY*(   9) C  20                  0.00002     2.13053   
   340. RY*(  10) C  20                  0.00001     1.75897   
   341. RY*(   1) C  21                  0.00276     1.04482   
   342. RY*(   2) C  21                  0.00167     0.60012   
   343. RY*(   3) C  21                  0.00034     0.76585   
   344. RY*(   4) C  21                  0.00027     0.97603   
   345. RY*(   5) C  21                  0.00016     1.52633   
   346. RY*(   6) C  21                  0.00005     2.19964   
   347. RY*(   7) C  21                  0.00002     1.86085   
   348. RY*(   8) C  21                  0.00002     4.02828   
   349. RY*(   9) C  21                  0.00001     2.11015   
   350. RY*(  10) C  21                  0.00002     1.91794   
   351. RY*(   1) C  22                  0.00413     0.63753   
   352. RY*(   2) C  22                  0.00335     0.99001   
   353. RY*(   3) C  22                  0.00113     0.94354   
   354. RY*(   4) C  22                  0.00032     1.77615   
   355. RY*(   5) C  22                  0.00021     2.23375   
   356. RY*(   6) C  22                  0.00020     0.97230   
   357. RY*(   7) C  22                  0.00009     1.85756   
   358. RY*(   8) C  22                  0.00003     3.05538   
   359. RY*(   9) C  22                  0.00000     3.11766   
   360. RY*(  10) C  22                  0.00001     1.23182   
   361. RY*(   1) C  23                  0.00273     1.03820   
   362. RY*(   2) C  23                  0.00162     0.61011   
   363. RY*(   3) C  23                  0.00034     0.83989   
   364. RY*(   4) C  23                  0.00027     0.96529   
   365. RY*(   5) C  23                  0.00014     1.46019   
   366. RY*(   6) C  23                  0.00005     2.20664   
   367. RY*(   7) C  23                  0.00002     1.90711   
   368. RY*(   8) C  23                  0.00002     4.01236   
   369. RY*(   9) C  23                  0.00001     2.14549   
   370. RY*(  10) C  23                  0.00002     1.84606   
   371. RY*(   1) N  24                  0.00228     1.14173   
   372. RY*(   2) N  24                  0.00210     0.94367   
   373. RY*(   3) N  24                  0.00092     0.93761   
   374. RY*(   4) N  24                  0.00073     1.28064   
   375. RY*(   5) N  24                  0.00013     1.77945   
   376. RY*(   6) N  24                  0.00013     2.26378   
   377. RY*(   7) N  24                  0.00005     1.96289   
   378. RY*(   8) N  24                  0.00004     1.91769   
   379. RY*(   9) N  24                  0.00001     3.60934   
   380. RY*(  10) N  24                  0.00002     2.08382   
   381. RY*(   1)Br  25                  0.00092     0.41154   
   382. RY*(   2)Br  25                  0.00061     0.57345   
   383. RY*(   3)Br  25                  0.00021     0.39057   
   384. RY*(   4)Br  25                  0.00003     0.59966   
   385. RY*(   5)Br  25                  0.00003     0.49136   
   386. RY*(   6)Br  25                  0.00001     0.62708   
   387. RY*(   7)Br  25                  0.00001     0.56797   
   388. RY*(   8)Br  25                  0.00000     1.38712   
   389. RY*(   9)Br  25                  0.00001     0.89228   
   390. RY*(  10)Br  25                  0.00000    32.62064   
   391. RY*(  11)Br  25                  0.00000    47.84816   
   392. RY*(  12)Br  25                  0.00001     0.50550   
   393. RY*(   1) S  26                  0.03669     0.70180   
   394. RY*(   2) S  26                  0.03493     0.63053   
   395. RY*(   3) S  26                  0.02476     0.78460   
   396. RY*(   4) S  26                  0.01699     0.74383   
   397. RY*(   5) S  26                  0.00531     0.69916   
   398. RY*(   6) S  26                  0.00450     0.53359   
   399. RY*(   7) S  26                  0.00233     0.50840   
   400. RY*(   8) S  26                  0.00057     0.63920   
   401. RY*(   9) S  26                  0.00038     0.47284   
   402. RY*(  10) S  26                  0.00006     3.51716   
   403. RY*(   1) O  27                  0.00064     1.63929   
   404. RY*(   2) O  27                  0.00051     1.13728   
   405. RY*(   3) O  27                  0.00023     1.06032   
   406. RY*(   4) O  27                  0.00009     1.29001   
   407. RY*(   5) O  27                  0.00002     1.86198   
   408. RY*(   6) O  27                  0.00001     1.94346   
   409. RY*(   7) O  27                  0.00001     3.44393   
   410. RY*(   8) O  27                  0.00002     1.85567   
   411. RY*(   9) O  27                  0.00001     1.72558   
   412. RY*(  10) O  27                  0.00000     1.85129   
   413. RY*(   1) O  28                  0.00079     1.96395   
   414. RY*(   2) O  28                  0.00036     1.05078   
   415. RY*(   3) O  28                  0.00021     1.16171   
   416. RY*(   4) O  28                  0.00008     1.32479   
   417. RY*(   5) O  28                  0.00002     1.81382   
   418. RY*(   6) O  28                  0.00002     1.75635   
   419. RY*(   7) O  28                  0.00001     1.79270   
   420. RY*(   8) O  28                  0.00002     1.96340   
   421. RY*(   9) O  28                  0.00001     3.03665   
   422. RY*(  10) O  28                  0.00002     2.10891   
   423. RY*(   1) N  29                  0.00115     1.07656   
   424. RY*(   2) N  29                  0.00083     0.81282   
   425. RY*(   3) N  29                  0.00031     0.88781   
   426. RY*(   4) N  29                  0.00013     1.01486   
   427. RY*(   5) N  29                  0.00008     1.92670   
   428. RY*(   6) N  29                  0.00002     2.05817   
   429. RY*(   7) N  29                  0.00002     2.10308   
   430. RY*(   8) N  29                  0.00002     1.73106   
   431. RY*(   9) N  29                  0.00000     1.88440   
   432. RY*(  10) N  29                  0.00000     3.26381   
   433. RY*(   1) H  30                  0.00060     0.45588   
   434. RY*(   1) H  31                  0.00061     0.44733   
   435. RY*(   1) H  32                  0.00108     0.52587   
   436. RY*(   1) H  33                  0.00106     0.52518   
   437. RY*(   1) H  34                  0.00097     0.52629   
   438. RY*(   1) H  35                  0.00096     0.52685   
   439. RY*(   1) H  36                  0.00051     0.44471   
   440. RY*(   1) H  37                  0.00046     0.44175   
   441. RY*(   1) H  38                  0.00041     0.44872   
   442. RY*(   1) H  39                  0.00045     0.44358   
   443. RY*(   1) H  40                  0.00047     0.44102   
   444. RY*(   1) H  41                  0.00093     0.55441   
   445. RY*(   1) H  42                  0.00070     0.57015   
   446. RY*(   1) H  43                  0.00026     0.49496   
   447. BD*(   1) C   1 - N   2          0.02061     0.38728   
   448. BD*(   1) C   1 - N   6          0.02278     0.38805   
   449. BD*(   2) C   1 - N   6          0.21854    -0.13230  452(v),113(v),142(g),145(g)
                                                    193(g),152(v),192(g)
   450. BD*(   1) C   1 - O   8          0.02904     0.26943   
   451. BD*(   1) N   2 - C   3          0.00625     0.41597   
   452. BD*(   2) N   2 - C   3          0.13298    -0.11537  449(v),163(g),153(g)
   453. BD*(   1) C   3 - C   4          0.01840     0.41810   
   454. BD*(   1) C   3 - H  30          0.01050     0.35863   
   455. BD*(   1) C   4 - C   5          0.01748     0.42601   
   456. BD*(   1) C   4 -Br   7          0.01670    -0.02851   
   457. BD*(   1) C   5 - N   6          0.00714     0.40332   
   458. BD*(   1) C   5 - H  31          0.01025     0.35175   
   459. BD*(   1) O   8 - C   9          0.00947     0.14555   
   460. BD*(   1) C   9 - C  10          0.00834     0.26795   
   461. BD*(   1) C   9 - H  32          0.01004     0.33119   
   462. BD*(   1) C   9 - H  33          0.01003     0.33410   
   463. BD*(   1) C  10 - O  11          0.01039     0.13632   
   464. BD*(   1) C  10 - H  34          0.00926     0.33698   
   465. BD*(   1) C  10 - H  35          0.00939     0.33543   
   466. BD*(   1) O  11 - C  15          0.02340     0.25271   
   467. BD*(   1) N  12 - C  13          0.01405     0.40634   
   468. BD*(   2) N  12 - C  13          0.16219    -0.12955  473(v),125(v),265(g),253(g)
                                                    263(g),255(g)
   469. BD*(   1) N  12 - C  17          0.01147     0.36567   
   470. BD*(   1) C  13 - N  14          0.01389     0.40074   
   471. BD*(   1) C  13 - H  36          0.01234     0.35413   
   472. BD*(   1) N  14 - C  15          0.01400     0.38120   
   473. BD*(   2) N  14 - C  15          0.20818    -0.14365  468(v),124(v),273(g),283(g)
   474. BD*(   1) C  15 - C  16          0.02142     0.38412   
   475. BD*(   1) C  16 - C  17          0.02069     0.39459   
   476. BD*(   1) C  16 - C  19          0.01526     0.31265   
   477. BD*(   1) C  17 - N  24          0.02126     0.29578   
   478. BD*(   1) C  18 - C  19          0.01167     0.41825   
   479. BD*(   1) C  18 - C  23          0.00798     0.43831   
   480. BD*(   2) C  18 - C  23          0.10481    -0.10297  484(r),126(v),127(v),365(g)
                                                    314(g)
   481. BD*(   1) C  18 - H  37          0.00557     0.34156   
   482. BD*(   1) C  19 - C  20          0.01172     0.41439   
   483. BD*(   1) C  20 - C  21          0.00804     0.43460   
   484. BD*(   2) C  20 - C  21          0.11147    -0.10610  480(r),126(v),127(v),334(g)
                                                    345(g)
   485. BD*(   1) C  20 - H  38          0.00556     0.34260   
   486. BD*(   1) C  21 - C  22          0.01233     0.42642   
   487. BD*(   1) C  21 - H  39          0.00581     0.35105   
   488. BD*(   1) C  22 - C  23          0.01243     0.42399   
   489. BD*(   1) C  22 -Br  25          0.01607    -0.04367   
   490. BD*(   1) C  23 - H  40          0.00587     0.34839   
   491. BD*(   1) N  24 - S  26          0.14622     0.00078  394(g),477(g),494(g),373(g)
                                                    469(v),401(g),495(g),492(g)
                                                    125(v),475(v),398(g),400(g)
   492. BD*(   1) N  24 - H  41          0.00741     0.30585   
   493. BD*(   1) S  26 - O  27          0.06965     0.18135   
   494. BD*(   1) S  26 - O  28          0.08870     0.18125   
   495. BD*(   1) S  26 - N  29          0.11534     0.03224  393(g),494(g),394(g),423(g)
                                                    400(g),493(g),399(g),491(g)
   496. BD*(   1) N  29 - H  42          0.00911     0.33658   
   497. BD*(   1) N  29 - H  43          0.00306     0.33819   
       -------------------------------
              Total Lewis  130.06044  ( 97.0600%)
        Valence non-Lewis    3.63856  (  2.7153%)
        Rydberg non-Lewis    0.30100  (  0.2246%)
       -------------------------------
            Total unit  1  134.00000  (100.0000%)
           Charge unit  1    1.00000
 1|1|UNPC-DESKTOP-RHC4KL8|SP|UB3LYP|6-31G(d)|C16H14Br2N6O4S1(1+,2)|DREA
 M|31-Aug-2024|0||# b3lyp/6-31g(d) pop=nbo||Title Card Required||1,2|C,
 0,-2.38410605,-0.66225165,0.|N,0,-2.38410605,-0.66225165,1.34056762|C,
 0,-1.18822537,-0.66225165,1.92619139|C,0,-0.00671523,-0.66195669,1.181
 95713|C,0,-0.12182981,-0.66269532,-0.20290914|N,0,-1.31741896,-0.66273
 718,-0.80297728|Br,0,1.69419499,-0.66019181,2.03271748|O,0,-3.61033939
 ,-0.66005114,-0.54129695|C,0,-3.71314602,-0.64463131,-1.97648388|C,0,-
 5.20409607,-0.63280635,-2.27311037|O,0,-5.30002029,-0.61974128,-3.7104
 5497|N,0,-8.99506825,-0.5632022,-5.38729494|C,0,-8.77806105,-0.5809170
 8,-4.07704837|N,0,-7.59326291,-0.59293747,-3.46731456|C,0,-6.52084418,
 -0.59760894,-4.26455313|C,0,-6.59147712,-0.60102451,-5.67258531|C,0,-7
 .90365685,-0.57683294,-6.17619454|C,0,-4.43603332,0.41149812,-6.475771
 07|C,0,-5.37968818,-0.62670866,-6.53623312|C,0,-5.155589,-1.68832883,-
 7.42808748|C,0,-4.02189191,-1.7162688,-8.24148683|C,0,-3.10448996,-0.6
 7238006,-8.15593259|C,0,-3.29780715,0.39430164,-7.27968242|N,0,-8.1415
 5269,-0.51050249,-7.5406254|Br,0,-1.54133241,-0.70282822,-9.26606341|S
 ,0,-9.59828117,-0.91283544,-8.30002895|O,0,-9.34705574,-0.69298986,-9.
 72259412|O,0,-10.0512599,-2.2312935,-7.85216638|N,0,-10.58133109,0.326
 67752,-7.74119677|H,0,-1.1698764,-0.66201103,3.01373302|H,0,0.75380527
 ,-0.66316849,-0.84737224|H,0,-3.2234737,0.2468948,-2.37933509|H,0,-3.2
 3338791,-1.53188635,-2.39993145|H,0,-5.69581203,-1.52342646,-1.8716367
 5|H,0,-5.68432362,0.25608834,-1.8546836|H,0,-9.65745489,-0.57804049,-3
 .43810026|H,0,-4.59050212,1.24433326,-5.79689127|H,0,-5.86457061,-2.50
 942438,-7.48457565|H,0,-3.86035231,-2.5446493,-8.92286261|H,0,-2.57753
 736,1.2033731,-7.22303819|H,0,-7.3621941,-0.42825121,-8.18704865|H,0,-
 10.64930866,0.23170814,-6.72130704|H,0,-11.51041955,0.2214996,-8.15855
 63||Version=IA32W-G09RevD.01|State=2-A|HF=-6788.7758114|S2=0.753594|S2
 -1=0.|S2A=0.750012|RMSD=8.954e-009|Dipole=0.8936023,0.7540823,1.030037
 |Quadrupole=20.9881646,-31.3371198,10.3489552,-7.555052,20.5211777,-1.
 3464954|PG=C01 [X(C16H14Br2N6O4S1)]||@


 IF AT FIRST YOU DON'T SUCCEED, TRY, TRY AGAIN.
 THEN GIVE UP;
 THERE'S NO USE BEING A DAMN FOOL ABOUT IT.

                                 -- W. C. FIELDS
 Job cpu time:       0 days  0 hours 17 minutes 36.0 seconds.
 File lengths (MBytes):  RWF=    234 Int=      0 D2E=      0 Chk=     12 Scr=      1
 Normal termination of Gaussian 09 at Sat Aug 31 03:03:01 2024.




